----- GAMESS execution script 'rungms' -----
This job is running on host Scotts-Mac-mini.local
under operating system Darwin at Wed Jul 31 17:50:05 MDT 2019
Available scratch disk space (Kbyte units) at beginning of the job is
Filesystem   1024-blocks      Used Available Capacity iused               ifree %iused  Mounted on
/dev/disk2s1  1094841992 133303824 948183656    13% 1006846 9223372036853768961    0%   /
GAMESS temporary binary files will be written to ./
GAMESS supplementary output files will be written to ./
Copying input file ../../../.gamessqd/alkenes3_28.inp to your run's scratch directory...
cp ../../../.gamessqd/alkenes3_28.inp .//../../../.gamessqd/alkenes3_28.F05
unset echo
.//ddikick.x .//gamess.May12013R1.x ../../../.gamessqd/alkenes3_28 -ddi 1 1 localhost -scr ./

 Distributed Data Interface kickoff program.
 Initiating 1 compute processes on 1 nodes to run the following command:
 .//gamess.May12013R1.x ../../../.gamessqd/alkenes3_28 

          ******************************************************
          *         GAMESS VERSION =  1 MAY 2013 (R1)          *
          *             FROM IOWA STATE UNIVERSITY             *
          * M.W.SCHMIDT, K.K.BALDRIDGE, J.A.BOATZ, S.T.ELBERT, *
          *   M.S.GORDON, J.H.JENSEN, S.KOSEKI, N.MATSUNAGA,   *
          *          K.A.NGUYEN, S.J.SU, T.L.WINDUS,           *
          *       TOGETHER WITH M.DUPUIS, J.A.MONTGOMERY       *
          *         J.COMPUT.CHEM.  14, 1347-1363(1993)        *
          **************** 32 BIT LINUX VERSION ****************

  SINCE 1993, STUDENTS AND POSTDOCS WORKING AT IOWA STATE UNIVERSITY
  AND ALSO IN THEIR VARIOUS JOBS AFTER LEAVING ISU HAVE MADE IMPORTANT
  CONTRIBUTIONS TO THE CODE:
     IVANA ADAMOVIC, CHRISTINE AIKENS, YURI ALEXEEV, POOJA ARORA,
     ANDREY ASADCHEV, ROB BELL, PRADIPTA BANDYOPADHYAY, JONATHAN BENTZ,
     BRETT BODE, GALINA CHABAN, WEI CHEN, CHEOL HO CHOI, PAUL DAY,
     ALBERT DEFUSCO, TIM DUDLEY, DMITRI FEDOROV, GRAHAM FLETCHER,
     MARK FREITAG, KURT GLAESEMANN, DAN KEMP, GRANT MERRILL,
     NORIYUKI MINEZAWA, JONATHAN MULLIN, TAKESHI NAGATA,
     SEAN NEDD, HEATHER NETZLOFF, BOSILJKA NJEGIC, RYAN OLSON, MIKE PAK,
     JIM SHOEMAKER, LYUDMILA SLIPCHENKO, SAROM SOK, JIE SONG,
     TETSUYA TAKETSUGU, SIMON WEBB, SOOHAENG YOO, FEDERICO ZAHARIEV

  ADDITIONAL CODE HAS BEEN PROVIDED BY COLLABORATORS IN OTHER GROUPS:
     IOWA STATE UNIVERSITY:
          JOE IVANIC, LAIMUTIS BYTAUTAS, KLAUS RUEDENBERG
     UNIVERSITY OF TOKYO: KIMIHIKO HIRAO, TAKAHITO NAKAJIMA,
          TAKAO TSUNEDA, MUNEAKI KAMIYA, SUSUMU YANAGISAWA,
          KIYOSHI YAGI, MAHITO CHIBA, SEIKEN TOKURA, NAOAKI KAWAKAMI
     UNIVERSITY OF AARHUS: FRANK JENSEN
     UNIVERSITY OF IOWA: VISVALDAS KAIRYS, HUI LI
     NATIONAL INST. OF STANDARDS AND TECHNOLOGY: WALT STEVENS, DAVID GARMER
     UNIVERSITY OF PISA: BENEDETTA MENNUCCI, JACOPO TOMASI
     UNIVERSITY OF MEMPHIS: HENRY KURTZ, PRAKASHAN KORAMBATH
     UNIVERSITY OF ALBERTA: TOBY ZENG, MARIUSZ KLOBUKOWSKI
     UNIVERSITY OF NEW ENGLAND: MARK SPACKMAN
     MIE UNIVERSITY: HIROAKI UMEDA
     MICHIGAN STATE UNIVERSITY:
          KAROL KOWALSKI, MARTA WLOCH, JEFFREY GOUR, JESSE LUTZ,
          WEI LI, PIOTR PIECUCH
     UNIVERSITY OF SILESIA: MONIKA MUSIAL, STANISLAW KUCHARSKI
     FACULTES UNIVERSITAIRES NOTRE-DAME DE LA PAIX:
          OLIVIER QUINET, BENOIT CHAMPAGNE
     UNIVERSITY OF CALIFORNIA - SANTA BARBARA: BERNARD KIRTMAN
     INSTITUTE FOR MOLECULAR SCIENCE:
          KAZUYA ISHIMURA, MICHIO KATOUDA, AND SHIGERU NAGASE
     UNIVERSITY OF NOTRE DAME: DAN CHIPMAN
     KYUSHU UNIVERSITY:
          HARUYUKI NAKANO,
          FENG LONG GU, JACEK KORCHOWIEC, MARCIN MAKOWSKI, AND YURIKO AOKI,
          HIROTOSHI MORI AND EISAKU MIYOSHI
     PENNSYLVANIA STATE UNIVERSITY:
          TZVETELIN IORDANOV, CHET SWALINA, JONATHAN SKONE,
          SHARON HAMMES-SCHIFFER
     WASEDA UNIVERSITY:
          MASATO KOBAYASHI, TOMOKO AKAMA, TSUGUKI TOUMA,
          TAKESHI YOSHIKAWA, YASUHIRO IKABATA, HIROMI NAKAI
     NANJING UNIVERSITY: SHUHUA LI
     UNIVERSITY OF NEBRASKA:
          PEIFENG SU, DEJUN SI, NANDUN THELLAMUREGE, YALI WANG, HUI LI
     UNIVERSITY OF ZURICH:
          ROBERTO PEVERATI, KIM BALDRIDGE
     N. COPERNICUS UNIVERSITY AND JACKSON STATE UNIVERSITY:
          MARIA BARYSZ

 EXECUTION OF GAMESS BEGUN Wed Jul 31 17:50:05 2019

            ECHO OF THE FIRST FEW INPUT CARDS -
 INPUT CARD>!   File created by the GAMESS Input Deck Generator Plugin for Avogadro         
 INPUT CARD> $BASIS GBASIS=STO NGAUSS=3 $END                                                
 INPUT CARD> $CONTRL SCFTYP=RHF RUNTYP=ENERGY $END                                          
 INPUT CARD>                                                                                
 INPUT CARD> $DATA                                                                          
 INPUT CARD>Title                                                                           
 INPUT CARD>C1                                                                              
 INPUT CARD>C     6.0    -7.84400     5.61270    -0.50308                                   
 INPUT CARD>C     6.0    -6.52006     5.58964    -0.67901                                   
 INPUT CARD>H     1.0    -8.35545     6.52674    -0.21821                                   
 INPUT CARD>H     1.0    -8.44196     4.71756    -0.64312                                   
 INPUT CARD>H     1.0    -5.91995     6.48390    -0.54204                                   
 INPUT CARD>H     1.0    -6.00918     4.67521    -0.96506                                   
 INPUT CARD>C     6.0    -3.00273     5.17073     1.16651                                   
 INPUT CARD>C     6.0    -1.99061     6.03585     1.30249                                   
 INPUT CARD>H     1.0    -3.98956     5.40505     1.55436                                   
 INPUT CARD>H     1.0    -2.87351     4.21574     0.66696                                   
 INPUT CARD>C     6.0    -0.60600     5.79154     0.79960                                   
 INPUT CARD>H     1.0    -2.16637     6.98291     1.80804                                   
 INPUT CARD>H     1.0    -0.50938     4.81811     0.30856                                   
 INPUT CARD>H     1.0     0.10337     5.82605     1.63203                                   
 INPUT CARD>H     1.0    -0.33007     6.56660     0.07824                                   
 INPUT CARD>C     6.0     3.10402     6.30579     0.32151                                   
 INPUT CARD>C     6.0     4.07441     6.91093     1.01742                                   
 INPUT CARD>H     1.0     2.36908     6.88859    -0.22504                                   
 INPUT CARD>H     1.0     3.02073     5.22426     0.27643                                   
 INPUT CARD>C     6.0     5.12787     6.18193     1.79721                                   
 INPUT CARD>H     1.0     4.11327     7.99841     1.03368                                   
 INPUT CARD>C     6.0     6.51708     6.45775     1.24336                                   
 INPUT CARD>H     1.0     4.94068     5.10240     1.78612                                   
 INPUT CARD>H     1.0     5.08053     6.50387     2.84369                                   
 INPUT CARD>H     1.0     6.60458     6.11352     0.20728                                   
 INPUT CARD>H     1.0     7.27393     5.93585     1.83688                                   
 INPUT CARD>H     1.0     6.74967     7.52770     1.26857                                   
 INPUT CARD>C     6.0    -8.03061     1.23693     1.29906                                   
 INPUT CARD>C     6.0    -6.83324     2.10593     1.50947                                   
 INPUT CARD>H     1.0    -8.78332     1.46085     2.06184                                   
 INPUT CARD>H     1.0    -7.80964     0.16923     1.35972                                   
 INPUT CARD>H     1.0    -8.46966     1.44147     0.31782                                   
 INPUT CARD>C     6.0    -5.55344     1.72424     1.64288                                   
 INPUT CARD>H     1.0    -7.04921     3.17255     1.56800                                   
 INPUT CARD>C     6.0    -5.00457     0.33637     1.58824                                   
 INPUT CARD>H     1.0    -4.81037     2.50351     1.80735                                   
 INPUT CARD>H     1.0    -5.74678    -0.41263     1.30610                                   
 INPUT CARD>H     1.0    -4.59310     0.06350     2.56450                                   
 INPUT CARD>H     1.0    -4.19578     0.28950     0.85237                                   
 INPUT CARD>C     6.0    -1.34895     1.30035     2.12726                                   
 INPUT CARD>C     6.0    -0.18153     2.17403     2.45153                                   
 INPUT CARD>H     1.0    -1.04650     0.27891     1.87637                                   
 INPUT CARD>H     1.0    -1.89654     1.71295     1.27456                                   
    1000000 WORDS OF MEMORY AVAILABLE

     BASIS OPTIONS
     -------------
     GBASIS=STO          IGAUSS=       3      POLAR=NONE    
     NDFUNC=       0     NFFUNC=       0     DIFFSP=       F
     NPFUNC=       0      DIFFS=       F     BASNAM=        


     RUN TITLE
     ---------
 Title                                                                           

 THE POINT GROUP OF THE MOLECULE IS C1      
 THE ORDER OF THE PRINCIPAL AXIS IS     0

 ATOM      ATOMIC                      COORDINATES (BOHR)
           CHARGE         X                   Y                   Z
 C           6.0   -14.8230106477       10.6064650513       -0.9506833499
 C           6.0   -12.3211268235       10.5628879700       -1.2831428429
 H           1.0   -15.7895110041       12.3337501931       -0.4123571078
 H           1.0   -15.9529911993        8.9148957306       -1.2153205772
 H           1.0   -11.1870833610       12.2527943318       -1.0243070744
 H           1.0   -11.3557036109        8.8348658351       -1.8236989617
 C           6.0    -5.6743369151        9.7712628565        2.2043842619
 C           6.0    -3.7617074484       11.4061026030        2.4613492017
 H           1.0    -7.5391752116       10.2140634499        2.9373144863
 H           1.0    -5.4301465230        7.9665934355        1.2603716448
 C           6.0    -1.1451739486       10.9444236469        1.5110248998
 H           1.0    -4.0938456880       13.1957864969        3.4167001748
 H           1.0    -0.9625886236        9.1049076787        0.5830938508
 H           1.0     0.1953409754       11.0096380908        3.0840895037
 H           1.0    -0.6237418568       12.4090746710        0.1478521613
 C           6.0     5.8657472604       11.9162152361        0.6075658023
 C           6.0     7.6995184616       13.0597640203        1.9226450144
 H           1.0     4.4769120430       13.0175475418       -0.4252639363
 H           1.0     5.7083519829        9.8724198886        0.5223769548
 C           6.0     9.6902692007       11.6821537753        3.3962344424
 H           1.0     7.7729532135       15.1148032375        1.9533719590
 C           6.0    12.3154954401       12.2033779972        2.3496097041
 H           1.0     9.3365313930        9.6421378798        3.3752773812
 H           1.0     9.6008095724       12.2905321598        5.3737948940
 H           1.0    12.4808464640       11.5528776205        0.3917024027
 H           1.0    13.7457345539       11.2171300042        3.4711998723
 H           1.0    12.7550268075       14.2252903178        2.3972496962
 C           6.0   -15.1756524143        2.3374587660        2.4548674416
 C           6.0   -12.9129512083        3.9796306493        2.8524846867
 H           1.0   -16.5980680625        2.7606062092        3.8963126305
 H           1.0   -14.7580796628        0.3197983289        2.5694982200
 H           1.0   -16.0053366092        2.7239833195        0.6005927134
 C           6.0   -10.4944798893        3.2583411371        3.1045930307
 H           1.0   -13.3210753299        5.9952501823        2.9630903487
 C           6.0    -9.4572659864        0.6356471305        3.0013384027
 H           1.0    -9.0902811996        4.7309479075        3.4153962639
 H           1.0   -10.8598395117       -0.7797576343        2.4681711126
 H           1.0    -8.6797004342        0.1199976002        4.8462022955
 H           1.0    -7.9288745048        0.5470756734        1.6107457402
 C           6.0    -2.5491458711        2.4573051881        4.0199385046
 C           6.0    -0.3430419586        4.1083209891        4.6327199507
 H           1.0    -1.9775982462        0.5270634752        3.5458251516
 H           1.0    -3.5839409248        3.2370061307        2.4085691549
 H           1.0    -3.8340083647        2.3696219023        5.6378274090
 C           6.0     2.0710074017        3.3354797519        4.5752722807
 H           1.0    -0.7850677643        6.0484648662        5.1523190083
 C           6.0     4.2735208349        4.9932040801        5.1885072609
 H           1.0     2.5119938582        1.3954114639        4.0582243532
 H           1.0     3.6947355594        6.9236725601        5.6542491279
 H           1.0     5.5607454860        5.0797346331        3.5723569044
 H           1.0     5.3087316283        4.2197581306        6.8030135558
 C           6.0    12.4657853479        5.9465897382        6.4139000777
 C           6.0    13.9014857698        3.6444688481        7.2312632591
 H           1.0    10.7929999035        6.2145528832        7.6017629363
 H           1.0    11.8507551279        5.7413465986        4.4493409408
 H           1.0    13.6132080704        7.6620829898        6.5479572392
 C           6.0    12.4453385127        1.2146780704        7.2036921570
 H           1.0    10.8141081428        1.3507005470        8.4693172400
 H           1.0    13.5963895091       -0.3896803959        7.8228797741
 H           1.0    11.7628261777        0.8035492845        5.2942563272
 C           6.0    16.3324103831        3.7510493938        7.9456174770
 H           1.0    17.3716651901        5.5202108636        7.9593746822
 H           1.0    17.3529002110        2.0711207853        8.5353064715
 C           6.0   -16.1099329426       -6.3766346812        6.1969406370
 C           6.0   -13.9208554612       -7.5857947517        5.8129105218
 H           1.0   -17.8600270771       -7.4228436798        6.4249549747
 H           1.0   -16.2108632076       -4.3296267995        6.2896883885
 C           6.0   -11.4263604656       -6.2790681284        5.4681678099
 H           1.0   -13.9199483927       -9.6402859483        5.7204462292
 C           6.0    -9.5017879306       -7.1386288912        7.4429692615
 H           1.0   -11.6617825291       -4.2240289113        5.5807954787
 H           1.0   -10.7189982339       -6.7056926674        3.5677648703
 C           6.0    -6.9684212715       -5.8344345008        7.0755876323
 H           1.0   -10.2052951214       -6.7281426122        9.3487579202
 H           1.0    -9.2274942035       -9.1896240947        7.3241432914
 H           1.0    -7.1496837882       -3.7850644616        7.2871046621
 H           1.0    -6.1949753220       -6.2278376569        5.1976535347
 H           1.0    -5.6106720466       -6.5057029662        8.4835846712
 C           6.0    -0.1980810780       -4.0600384901        7.3943655091
 C           6.0     1.3012842124       -6.0586693865        8.7091801596
 H           1.0    -1.6108969182       -3.2816036640        8.6879585368
 H           1.0    -1.1823448587       -4.8802362606        5.7715255227
 H           1.0     0.9669160961       -2.4991059270        6.7094154276
 C           6.0     3.8119930570       -6.0596709413        9.0711193780
 H           1.0     0.2152586873       -7.6505367640        9.4309610006
 C           6.0     5.5974817592       -4.0294060318        8.2087996153
 H           1.0     4.6300176425       -7.6575476474       10.0727497406
 C           6.0     8.3096731885       -4.5939427734        8.9772944828
 H           1.0     5.0411086339       -2.2108849193        9.0291485639
 H           1.0     5.5160912609       -3.8619196175        6.1460881107
 H           1.0     8.4984946092       -4.7053232231       11.0351115971
 H           1.0     9.5646591143       -3.1016261609        8.3028512777
 H           1.0     8.9631215378       -6.3796393455        8.1625202259
 C           6.0     4.9313155540      -13.7656900603       12.6112186599
 C           6.0     7.1515168225      -14.5101287159       13.5648877768
 H           1.0     4.7034712917      -12.0458882334       11.5240026074
 H           1.0     3.2482877948      -14.9029460570       12.9021797702
 C           6.0     9.5470279708      -13.1861677916       13.3269901723
 H           1.0     7.1823004588      -16.2778917884       14.6211690149
 C           6.0     9.6390387291      -10.6874020153       11.9761951390
 H           1.0     9.0257470571      -10.8930042028       10.0102376049
 H           1.0    11.5508934082       -9.8924698813       11.9405738041
 H           1.0     8.4209402547       -9.3051430444       12.9191306123
 C           6.0    11.6538645772      -14.1939775582       14.3200978706
 H           1.0    11.6446805089      -15.9929022122       15.3065348362
 H           1.0    13.4660740049      -13.2427083932       14.1708095175

     ATOMIC BASIS SET
     ----------------
 THE CONTRACTED PRIMITIVE FUNCTIONS HAVE BEEN UNNORMALIZED
 THE CONTRACTED BASIS FUNCTIONS ARE NOW NORMALIZED TO UNITY

  SHELL TYPE  PRIMITIVE        EXPONENT          CONTRACTION COEFFICIENT(S)

 C         

      1   S       1            71.6168373    0.154328967295
      1   S       2            13.0450963    0.535328142282
      1   S       3             3.5305122    0.444634542185

      2   L       4             2.9412494   -0.099967229187    0.155916274999
      2   L       5             0.6834831    0.399512826089    0.607683718598
      2   L       6             0.2222899    0.700115468880    0.391957393099

 C         

      3   S       7            71.6168373    0.154328967295
      3   S       8            13.0450963    0.535328142282
      3   S       9             3.5305122    0.444634542185

      4   L      10             2.9412494   -0.099967229187    0.155916274999
      4   L      11             0.6834831    0.399512826089    0.607683718598
      4   L      12             0.2222899    0.700115468880    0.391957393099

 H         

      5   S      13             3.4252509    0.154328967295
      5   S      14             0.6239137    0.535328142282
      5   S      15             0.1688554    0.444634542185

 H         

      6   S      16             3.4252509    0.154328967295
      6   S      17             0.6239137    0.535328142282
      6   S      18             0.1688554    0.444634542185

 H         

      7   S      19             3.4252509    0.154328967295
      7   S      20             0.6239137    0.535328142282
      7   S      21             0.1688554    0.444634542185

 H         

      8   S      22             3.4252509    0.154328967295
      8   S      23             0.6239137    0.535328142282
      8   S      24             0.1688554    0.444634542185

 C         

      9   S      25            71.6168373    0.154328967295
      9   S      26            13.0450963    0.535328142282
      9   S      27             3.5305122    0.444634542185

     10   L      28             2.9412494   -0.099967229187    0.155916274999
     10   L      29             0.6834831    0.399512826089    0.607683718598
     10   L      30             0.2222899    0.700115468880    0.391957393099

 C         

     11   S      31            71.6168373    0.154328967295
     11   S      32            13.0450963    0.535328142282
     11   S      33             3.5305122    0.444634542185

     12   L      34             2.9412494   -0.099967229187    0.155916274999
     12   L      35             0.6834831    0.399512826089    0.607683718598
     12   L      36             0.2222899    0.700115468880    0.391957393099

 H         

     13   S      37             3.4252509    0.154328967295
     13   S      38             0.6239137    0.535328142282
     13   S      39             0.1688554    0.444634542185

 H         

     14   S      40             3.4252509    0.154328967295
     14   S      41             0.6239137    0.535328142282
     14   S      42             0.1688554    0.444634542185

 C         

     15   S      43            71.6168373    0.154328967295
     15   S      44            13.0450963    0.535328142282
     15   S      45             3.5305122    0.444634542185

     16   L      46             2.9412494   -0.099967229187    0.155916274999
     16   L      47             0.6834831    0.399512826089    0.607683718598
     16   L      48             0.2222899    0.700115468880    0.391957393099

 H         

     17   S      49             3.4252509    0.154328967295
     17   S      50             0.6239137    0.535328142282
     17   S      51             0.1688554    0.444634542185

 H         

     18   S      52             3.4252509    0.154328967295
     18   S      53             0.6239137    0.535328142282
     18   S      54             0.1688554    0.444634542185

 H         

     19   S      55             3.4252509    0.154328967295
     19   S      56             0.6239137    0.535328142282
     19   S      57             0.1688554    0.444634542185

 H         

     20   S      58             3.4252509    0.154328967295
     20   S      59             0.6239137    0.535328142282
     20   S      60             0.1688554    0.444634542185

 C         

     21   S      61            71.6168373    0.154328967295
     21   S      62            13.0450963    0.535328142282
     21   S      63             3.5305122    0.444634542185

     22   L      64             2.9412494   -0.099967229187    0.155916274999
     22   L      65             0.6834831    0.399512826089    0.607683718598
     22   L      66             0.2222899    0.700115468880    0.391957393099

 C         

     23   S      67            71.6168373    0.154328967295
     23   S      68            13.0450963    0.535328142282
     23   S      69             3.5305122    0.444634542185

     24   L      70             2.9412494   -0.099967229187    0.155916274999
     24   L      71             0.6834831    0.399512826089    0.607683718598
     24   L      72             0.2222899    0.700115468880    0.391957393099

 H         

     25   S      73             3.4252509    0.154328967295
     25   S      74             0.6239137    0.535328142282
     25   S      75             0.1688554    0.444634542185

 H         

     26   S      76             3.4252509    0.154328967295
     26   S      77             0.6239137    0.535328142282
     26   S      78             0.1688554    0.444634542185

 C         

     27   S      79            71.6168373    0.154328967295
     27   S      80            13.0450963    0.535328142282
     27   S      81             3.5305122    0.444634542185

     28   L      82             2.9412494   -0.099967229187    0.155916274999
     28   L      83             0.6834831    0.399512826089    0.607683718598
     28   L      84             0.2222899    0.700115468880    0.391957393099

 H         

     29   S      85             3.4252509    0.154328967295
     29   S      86             0.6239137    0.535328142282
     29   S      87             0.1688554    0.444634542185

 C         

     30   S      88            71.6168373    0.154328967295
     30   S      89            13.0450963    0.535328142282
     30   S      90             3.5305122    0.444634542185

     31   L      91             2.9412494   -0.099967229187    0.155916274999
     31   L      92             0.6834831    0.399512826089    0.607683718598
     31   L      93             0.2222899    0.700115468880    0.391957393099

 H         

     32   S      94             3.4252509    0.154328967295
     32   S      95             0.6239137    0.535328142282
     32   S      96             0.1688554    0.444634542185

 H         

     33   S      97             3.4252509    0.154328967295
     33   S      98             0.6239137    0.535328142282
     33   S      99             0.1688554    0.444634542185

 H         

     34   S     100             3.4252509    0.154328967295
     34   S     101             0.6239137    0.535328142282
     34   S     102             0.1688554    0.444634542185

 H         

     35   S     103             3.4252509    0.154328967295
     35   S     104             0.6239137    0.535328142282
     35   S     105             0.1688554    0.444634542185

 H         

     36   S     106             3.4252509    0.154328967295
     36   S     107             0.6239137    0.535328142282
     36   S     108             0.1688554    0.444634542185

 C         

     37   S     109            71.6168373    0.154328967295
     37   S     110            13.0450963    0.535328142282
     37   S     111             3.5305122    0.444634542185

     38   L     112             2.9412494   -0.099967229187    0.155916274999
     38   L     113             0.6834831    0.399512826089    0.607683718598
     38   L     114             0.2222899    0.700115468880    0.391957393099

 C         

     39   S     115            71.6168373    0.154328967295
     39   S     116            13.0450963    0.535328142282
     39   S     117             3.5305122    0.444634542185

     40   L     118             2.9412494   -0.099967229187    0.155916274999
     40   L     119             0.6834831    0.399512826089    0.607683718598
     40   L     120             0.2222899    0.700115468880    0.391957393099

 H         

     41   S     121             3.4252509    0.154328967295
     41   S     122             0.6239137    0.535328142282
     41   S     123             0.1688554    0.444634542185

 H         

     42   S     124             3.4252509    0.154328967295
     42   S     125             0.6239137    0.535328142282
     42   S     126             0.1688554    0.444634542185

 H         

     43   S     127             3.4252509    0.154328967295
     43   S     128             0.6239137    0.535328142282
     43   S     129             0.1688554    0.444634542185

 C         

     44   S     130            71.6168373    0.154328967295
     44   S     131            13.0450963    0.535328142282
     44   S     132             3.5305122    0.444634542185

     45   L     133             2.9412494   -0.099967229187    0.155916274999
     45   L     134             0.6834831    0.399512826089    0.607683718598
     45   L     135             0.2222899    0.700115468880    0.391957393099

 H         

     46   S     136             3.4252509    0.154328967295
     46   S     137             0.6239137    0.535328142282
     46   S     138             0.1688554    0.444634542185

 C         

     47   S     139            71.6168373    0.154328967295
     47   S     140            13.0450963    0.535328142282
     47   S     141             3.5305122    0.444634542185

     48   L     142             2.9412494   -0.099967229187    0.155916274999
     48   L     143             0.6834831    0.399512826089    0.607683718598
     48   L     144             0.2222899    0.700115468880    0.391957393099

 H         

     49   S     145             3.4252509    0.154328967295
     49   S     146             0.6239137    0.535328142282
     49   S     147             0.1688554    0.444634542185

 H         

     50   S     148             3.4252509    0.154328967295
     50   S     149             0.6239137    0.535328142282
     50   S     150             0.1688554    0.444634542185

 H         

     51   S     151             3.4252509    0.154328967295
     51   S     152             0.6239137    0.535328142282
     51   S     153             0.1688554    0.444634542185

 H         

     52   S     154             3.4252509    0.154328967295
     52   S     155             0.6239137    0.535328142282
     52   S     156             0.1688554    0.444634542185

 C         

     53   S     157            71.6168373    0.154328967295
     53   S     158            13.0450963    0.535328142282
     53   S     159             3.5305122    0.444634542185

     54   L     160             2.9412494   -0.099967229187    0.155916274999
     54   L     161             0.6834831    0.399512826089    0.607683718598
     54   L     162             0.2222899    0.700115468880    0.391957393099

 C         

     55   S     163            71.6168373    0.154328967295
     55   S     164            13.0450963    0.535328142282
     55   S     165             3.5305122    0.444634542185

     56   L     166             2.9412494   -0.099967229187    0.155916274999
     56   L     167             0.6834831    0.399512826089    0.607683718598
     56   L     168             0.2222899    0.700115468880    0.391957393099

 H         

     57   S     169             3.4252509    0.154328967295
     57   S     170             0.6239137    0.535328142282
     57   S     171             0.1688554    0.444634542185

 H         

     58   S     172             3.4252509    0.154328967295
     58   S     173             0.6239137    0.535328142282
     58   S     174             0.1688554    0.444634542185

 H         

     59   S     175             3.4252509    0.154328967295
     59   S     176             0.6239137    0.535328142282
     59   S     177             0.1688554    0.444634542185

 C         

     60   S     178            71.6168373    0.154328967295
     60   S     179            13.0450963    0.535328142282
     60   S     180             3.5305122    0.444634542185

     61   L     181             2.9412494   -0.099967229187    0.155916274999
     61   L     182             0.6834831    0.399512826089    0.607683718598
     61   L     183             0.2222899    0.700115468880    0.391957393099

 H         

     62   S     184             3.4252509    0.154328967295
     62   S     185             0.6239137    0.535328142282
     62   S     186             0.1688554    0.444634542185

 C         

     63   S     187            71.6168373    0.154328967295
     63   S     188            13.0450963    0.535328142282
     63   S     189             3.5305122    0.444634542185

     64   L     190             2.9412494   -0.099967229187    0.155916274999
     64   L     191             0.6834831    0.399512826089    0.607683718598
     64   L     192             0.2222899    0.700115468880    0.391957393099

 H         

     65   S     193             3.4252509    0.154328967295
     65   S     194             0.6239137    0.535328142282
     65   S     195             0.1688554    0.444634542185

 H         

     66   S     196             3.4252509    0.154328967295
     66   S     197             0.6239137    0.535328142282
     66   S     198             0.1688554    0.444634542185

 H         

     67   S     199             3.4252509    0.154328967295
     67   S     200             0.6239137    0.535328142282
     67   S     201             0.1688554    0.444634542185

 H         

     68   S     202             3.4252509    0.154328967295
     68   S     203             0.6239137    0.535328142282
     68   S     204             0.1688554    0.444634542185

 C         

     69   S     205            71.6168373    0.154328967295
     69   S     206            13.0450963    0.535328142282
     69   S     207             3.5305122    0.444634542185

     70   L     208             2.9412494   -0.099967229187    0.155916274999
     70   L     209             0.6834831    0.399512826089    0.607683718598
     70   L     210             0.2222899    0.700115468880    0.391957393099

 C         

     71   S     211            71.6168373    0.154328967295
     71   S     212            13.0450963    0.535328142282
     71   S     213             3.5305122    0.444634542185

     72   L     214             2.9412494   -0.099967229187    0.155916274999
     72   L     215             0.6834831    0.399512826089    0.607683718598
     72   L     216             0.2222899    0.700115468880    0.391957393099

 H         

     73   S     217             3.4252509    0.154328967295
     73   S     218             0.6239137    0.535328142282
     73   S     219             0.1688554    0.444634542185

 H         

     74   S     220             3.4252509    0.154328967295
     74   S     221             0.6239137    0.535328142282
     74   S     222             0.1688554    0.444634542185

 H         

     75   S     223             3.4252509    0.154328967295
     75   S     224             0.6239137    0.535328142282
     75   S     225             0.1688554    0.444634542185

 C         

     76   S     226            71.6168373    0.154328967295
     76   S     227            13.0450963    0.535328142282
     76   S     228             3.5305122    0.444634542185

     77   L     229             2.9412494   -0.099967229187    0.155916274999
     77   L     230             0.6834831    0.399512826089    0.607683718598
     77   L     231             0.2222899    0.700115468880    0.391957393099

 H         

     78   S     232             3.4252509    0.154328967295
     78   S     233             0.6239137    0.535328142282
     78   S     234             0.1688554    0.444634542185

 H         

     79   S     235             3.4252509    0.154328967295
     79   S     236             0.6239137    0.535328142282
     79   S     237             0.1688554    0.444634542185

 H         

     80   S     238             3.4252509    0.154328967295
     80   S     239             0.6239137    0.535328142282
     80   S     240             0.1688554    0.444634542185

 C         

     81   S     241            71.6168373    0.154328967295
     81   S     242            13.0450963    0.535328142282
     81   S     243             3.5305122    0.444634542185

     82   L     244             2.9412494   -0.099967229187    0.155916274999
     82   L     245             0.6834831    0.399512826089    0.607683718598
     82   L     246             0.2222899    0.700115468880    0.391957393099

 H         

     83   S     247             3.4252509    0.154328967295
     83   S     248             0.6239137    0.535328142282
     83   S     249             0.1688554    0.444634542185

 H         

     84   S     250             3.4252509    0.154328967295
     84   S     251             0.6239137    0.535328142282
     84   S     252             0.1688554    0.444634542185

 C         

     85   S     253            71.6168373    0.154328967295
     85   S     254            13.0450963    0.535328142282
     85   S     255             3.5305122    0.444634542185

     86   L     256             2.9412494   -0.099967229187    0.155916274999
     86   L     257             0.6834831    0.399512826089    0.607683718598
     86   L     258             0.2222899    0.700115468880    0.391957393099

 C         

     87   S     259            71.6168373    0.154328967295
     87   S     260            13.0450963    0.535328142282
     87   S     261             3.5305122    0.444634542185

     88   L     262             2.9412494   -0.099967229187    0.155916274999
     88   L     263             0.6834831    0.399512826089    0.607683718598
     88   L     264             0.2222899    0.700115468880    0.391957393099

 H         

     89   S     265             3.4252509    0.154328967295
     89   S     266             0.6239137    0.535328142282
     89   S     267             0.1688554    0.444634542185

 H         

     90   S     268             3.4252509    0.154328967295
     90   S     269             0.6239137    0.535328142282
     90   S     270             0.1688554    0.444634542185

 C         

     91   S     271            71.6168373    0.154328967295
     91   S     272            13.0450963    0.535328142282
     91   S     273             3.5305122    0.444634542185

     92   L     274             2.9412494   -0.099967229187    0.155916274999
     92   L     275             0.6834831    0.399512826089    0.607683718598
     92   L     276             0.2222899    0.700115468880    0.391957393099

 H         

     93   S     277             3.4252509    0.154328967295
     93   S     278             0.6239137    0.535328142282
     93   S     279             0.1688554    0.444634542185

 C         

     94   S     280            71.6168373    0.154328967295
     94   S     281            13.0450963    0.535328142282
     94   S     282             3.5305122    0.444634542185

     95   L     283             2.9412494   -0.099967229187    0.155916274999
     95   L     284             0.6834831    0.399512826089    0.607683718598
     95   L     285             0.2222899    0.700115468880    0.391957393099

 H         

     96   S     286             3.4252509    0.154328967295
     96   S     287             0.6239137    0.535328142282
     96   S     288             0.1688554    0.444634542185

 H         

     97   S     289             3.4252509    0.154328967295
     97   S     290             0.6239137    0.535328142282
     97   S     291             0.1688554    0.444634542185

 C         

     98   S     292            71.6168373    0.154328967295
     98   S     293            13.0450963    0.535328142282
     98   S     294             3.5305122    0.444634542185

     99   L     295             2.9412494   -0.099967229187    0.155916274999
     99   L     296             0.6834831    0.399512826089    0.607683718598
     99   L     297             0.2222899    0.700115468880    0.391957393099

 H         

    100   S     298             3.4252509    0.154328967295
    100   S     299             0.6239137    0.535328142282
    100   S     300             0.1688554    0.444634542185

 H         

    101   S     301             3.4252509    0.154328967295
    101   S     302             0.6239137    0.535328142282
    101   S     303             0.1688554    0.444634542185

 H         

    102   S     304             3.4252509    0.154328967295
    102   S     305             0.6239137    0.535328142282
    102   S     306             0.1688554    0.444634542185

 H         

    103   S     307             3.4252509    0.154328967295
    103   S     308             0.6239137    0.535328142282
    103   S     309             0.1688554    0.444634542185

 H         

    104   S     310             3.4252509    0.154328967295
    104   S     311             0.6239137    0.535328142282
    104   S     312             0.1688554    0.444634542185

 C         

    105   S     313            71.6168373    0.154328967295
    105   S     314            13.0450963    0.535328142282
    105   S     315             3.5305122    0.444634542185

    106   L     316             2.9412494   -0.099967229187    0.155916274999
    106   L     317             0.6834831    0.399512826089    0.607683718598
    106   L     318             0.2222899    0.700115468880    0.391957393099

 C         

    107   S     319            71.6168373    0.154328967295
    107   S     320            13.0450963    0.535328142282
    107   S     321             3.5305122    0.444634542185

    108   L     322             2.9412494   -0.099967229187    0.155916274999
    108   L     323             0.6834831    0.399512826089    0.607683718598
    108   L     324             0.2222899    0.700115468880    0.391957393099

 H         

    109   S     325             3.4252509    0.154328967295
    109   S     326             0.6239137    0.535328142282
    109   S     327             0.1688554    0.444634542185

 H         

    110   S     328             3.4252509    0.154328967295
    110   S     329             0.6239137    0.535328142282
    110   S     330             0.1688554    0.444634542185

 H         

    111   S     331             3.4252509    0.154328967295
    111   S     332             0.6239137    0.535328142282
    111   S     333             0.1688554    0.444634542185

 C         

    112   S     334            71.6168373    0.154328967295
    112   S     335            13.0450963    0.535328142282
    112   S     336             3.5305122    0.444634542185

    113   L     337             2.9412494   -0.099967229187    0.155916274999
    113   L     338             0.6834831    0.399512826089    0.607683718598
    113   L     339             0.2222899    0.700115468880    0.391957393099

 H         

    114   S     340             3.4252509    0.154328967295
    114   S     341             0.6239137    0.535328142282
    114   S     342             0.1688554    0.444634542185

 C         

    115   S     343            71.6168373    0.154328967295
    115   S     344            13.0450963    0.535328142282
    115   S     345             3.5305122    0.444634542185

    116   L     346             2.9412494   -0.099967229187    0.155916274999
    116   L     347             0.6834831    0.399512826089    0.607683718598
    116   L     348             0.2222899    0.700115468880    0.391957393099

 H         

    117   S     349             3.4252509    0.154328967295
    117   S     350             0.6239137    0.535328142282
    117   S     351             0.1688554    0.444634542185

 C         

    118   S     352            71.6168373    0.154328967295
    118   S     353            13.0450963    0.535328142282
    118   S     354             3.5305122    0.444634542185

    119   L     355             2.9412494   -0.099967229187    0.155916274999
    119   L     356             0.6834831    0.399512826089    0.607683718598
    119   L     357             0.2222899    0.700115468880    0.391957393099

 H         

    120   S     358             3.4252509    0.154328967295
    120   S     359             0.6239137    0.535328142282
    120   S     360             0.1688554    0.444634542185

 H         

    121   S     361             3.4252509    0.154328967295
    121   S     362             0.6239137    0.535328142282
    121   S     363             0.1688554    0.444634542185

 H         

    122   S     364             3.4252509    0.154328967295
    122   S     365             0.6239137    0.535328142282
    122   S     366             0.1688554    0.444634542185

 H         

    123   S     367             3.4252509    0.154328967295
    123   S     368             0.6239137    0.535328142282
    123   S     369             0.1688554    0.444634542185

 H         

    124   S     370             3.4252509    0.154328967295
    124   S     371             0.6239137    0.535328142282
    124   S     372             0.1688554    0.444634542185

 C         

    125   S     373            71.6168373    0.154328967295
    125   S     374            13.0450963    0.535328142282
    125   S     375             3.5305122    0.444634542185

    126   L     376             2.9412494   -0.099967229187    0.155916274999
    126   L     377             0.6834831    0.399512826089    0.607683718598
    126   L     378             0.2222899    0.700115468880    0.391957393099

 C         

    127   S     379            71.6168373    0.154328967295
    127   S     380            13.0450963    0.535328142282
    127   S     381             3.5305122    0.444634542185

    128   L     382             2.9412494   -0.099967229187    0.155916274999
    128   L     383             0.6834831    0.399512826089    0.607683718598
    128   L     384             0.2222899    0.700115468880    0.391957393099

 H         

    129   S     385             3.4252509    0.154328967295
    129   S     386             0.6239137    0.535328142282
    129   S     387             0.1688554    0.444634542185

 H         

    130   S     388             3.4252509    0.154328967295
    130   S     389             0.6239137    0.535328142282
    130   S     390             0.1688554    0.444634542185

 C         

    131   S     391            71.6168373    0.154328967295
    131   S     392            13.0450963    0.535328142282
    131   S     393             3.5305122    0.444634542185

    132   L     394             2.9412494   -0.099967229187    0.155916274999
    132   L     395             0.6834831    0.399512826089    0.607683718598
    132   L     396             0.2222899    0.700115468880    0.391957393099

 H         

    133   S     397             3.4252509    0.154328967295
    133   S     398             0.6239137    0.535328142282
    133   S     399             0.1688554    0.444634542185

 C         

    134   S     400            71.6168373    0.154328967295
    134   S     401            13.0450963    0.535328142282
    134   S     402             3.5305122    0.444634542185

    135   L     403             2.9412494   -0.099967229187    0.155916274999
    135   L     404             0.6834831    0.399512826089    0.607683718598
    135   L     405             0.2222899    0.700115468880    0.391957393099

 H         

    136   S     406             3.4252509    0.154328967295
    136   S     407             0.6239137    0.535328142282
    136   S     408             0.1688554    0.444634542185

 H         

    137   S     409             3.4252509    0.154328967295
    137   S     410             0.6239137    0.535328142282
    137   S     411             0.1688554    0.444634542185

 H         

    138   S     412             3.4252509    0.154328967295
    138   S     413             0.6239137    0.535328142282
    138   S     414             0.1688554    0.444634542185

 C         

    139   S     415            71.6168373    0.154328967295
    139   S     416            13.0450963    0.535328142282
    139   S     417             3.5305122    0.444634542185

    140   L     418             2.9412494   -0.099967229187    0.155916274999
    140   L     419             0.6834831    0.399512826089    0.607683718598
    140   L     420             0.2222899    0.700115468880    0.391957393099

 H         

    141   S     421             3.4252509    0.154328967295
    141   S     422             0.6239137    0.535328142282
    141   S     423             0.1688554    0.444634542185

 H         

    142   S     424             3.4252509    0.154328967295
    142   S     425             0.6239137    0.535328142282
    142   S     426             0.1688554    0.444634542185

 TOTAL NUMBER OF BASIS SET SHELLS             =  142
 NUMBER OF CARTESIAN GAUSSIAN BASIS FUNCTIONS =  250
 NUMBER OF ELECTRONS                          =  286
 CHARGE OF MOLECULE                           =    0
 SPIN MULTIPLICITY                            =    1
 NUMBER OF OCCUPIED ORBITALS (ALPHA)          =  143
 NUMBER OF OCCUPIED ORBITALS (BETA )          =  143
 TOTAL NUMBER OF ATOMS                        =  106
 THE NUCLEAR REPULSION ENERGY IS     3337.6587351687

     $CONTRL OPTIONS
     ---------------
 SCFTYP=RHF          RUNTYP=ENERGY       EXETYP=RUN     
 MPLEVL=       0     CITYP =NONE         CCTYP =NONE         VBTYP =NONE    
 DFTTYP=NONE         TDDFT =NONE    
 MULT  =       1     ICHARG=       0     NZVAR =       0     COORD =UNIQUE  
 PP    =NONE         RELWFN=NONE         LOCAL =NONE         NUMGRD=       F
 ISPHER=      -1     NOSYM =       0     MAXIT =      30     UNITS =ANGS    
 PLTORB=       F     MOLPLT=       F     AIMPAC=       F     FRIEND=        
 NPRINT=       7     IREST =       0     GEOM  =INPUT   
 NORMF =       0     NORMP =       0     ITOL  =      20     ICUT  =       9
 INTTYP=BEST         GRDTYP=BEST         QMTTOL= 1.0E-06

     $SYSTEM OPTIONS
     ---------------
  REPLICATED MEMORY=     1000000 WORDS (ON EVERY NODE).
 DISTRIBUTED MEMDDI=           0 MILLION WORDS IN AGGREGATE,
 MEMDDI DISTRIBUTED OVER   1 PROCESSORS IS           0 WORDS/PROCESSOR.
 TOTAL MEMORY REQUESTED ON EACH PROCESSOR=     1000000 WORDS.
 TIMLIM=      525600.00 MINUTES, OR     365.0 DAYS.
 PARALL= F  BALTYP=  DLB     KDIAG=    0  COREFL= F
 MXSEQ2=     300 MXSEQ3=     150

          ----------------
          PROPERTIES INPUT
          ----------------

     MOMENTS            FIELD           POTENTIAL          DENSITY
 IEMOM =       1   IEFLD =       0   IEPOT =       0   IEDEN =       0
 WHERE =COMASS     WHERE =NUCLEI     WHERE =NUCLEI     WHERE =NUCLEI  
 OUTPUT=BOTH       OUTPUT=BOTH       OUTPUT=BOTH       OUTPUT=BOTH    
 IEMINT=       0   IEFINT=       0                     IEDINT=       0
                                                       MORB  =       0
          EXTRAPOLATION IN EFFECT
          SOSCF IN EFFECT
 ORBITAL PRINTING OPTION: NPREO=     1   250     2     1

     -------------------------------
     INTEGRAL TRANSFORMATION OPTIONS
     -------------------------------
     NWORD  =            0
     CUTOFF = 1.0E-09     MPTRAN =       0
     DIRTRF =       F     AOINTS =DUP     

          ----------------------
          INTEGRAL INPUT OPTIONS
          ----------------------
 NOPK  =       1 NORDER=       0 SCHWRZ=       T

     ------------------------------------------
     THE POINT GROUP IS C1 , NAXIS= 0, ORDER= 1
     ------------------------------------------

     DIMENSIONS OF THE SYMMETRY SUBSPACES ARE
 A   =  250

 ..... DONE SETTING UP THE RUN .....
 STEP CPU TIME =     0.03 TOTAL CPU TIME =        0.0 (    0.0 MIN)
 TOTAL WALL CLOCK TIME=        0.0 SECONDS, CPU UTILIZATION IS 100.00%

          ********************
          1 ELECTRON INTEGRALS
          ********************
 ...... END OF ONE-ELECTRON INTEGRALS ......
 STEP CPU TIME =     0.21 TOTAL CPU TIME =        0.2 (    0.0 MIN)
 TOTAL WALL CLOCK TIME=        2.0 SECONDS, CPU UTILIZATION IS  12.00%

          -------------
          GUESS OPTIONS
          -------------
          GUESS =HUCKEL            NORB  =       0          NORDER=       0
          MIX   =       F          PRTMO =       F          PUNMO =       F
          TOLZ  = 1.0E-08          TOLE  = 1.0E-05
          SYMDEN=       F          PURIFY=       F

 INITIAL GUESS ORBITALS GENERATED BY HUCKEL   ROUTINE.
 HUCKEL GUESS REQUIRES    759296 WORDS.

 SYMMETRIES FOR INITIAL GUESS ORBITALS FOLLOW.   BOTH SET(S).
   143 ORBITALS ARE OCCUPIED (   36 CORE ORBITALS).
    37=A       38=A       39=A       40=A       41=A       42=A       43=A   
    44=A       45=A       46=A       47=A       48=A       49=A       50=A   
    51=A       52=A       53=A       54=A       55=A       56=A       57=A   
    58=A       59=A       60=A       61=A       62=A       63=A       64=A   
    65=A       66=A       67=A       68=A       69=A       70=A       71=A   
    72=A       73=A       74=A       75=A       76=A       77=A       78=A   
    79=A       80=A       81=A       82=A       83=A       84=A       85=A   
    86=A       87=A       88=A       89=A       90=A       91=A       92=A   
    93=A       94=A       95=A       96=A       97=A       98=A       99=A   
   100=A      101=A      102=A      103=A      104=A      105=A      106=A   
   107=A      108=A      109=A      110=A      111=A      112=A      113=A   
   114=A      115=A      116=A      117=A      118=A      119=A      120=A   
   121=A      122=A      123=A      124=A      125=A      126=A      127=A   
   128=A      129=A      130=A      131=A      132=A      133=A      134=A   
   135=A      136=A      137=A      138=A      139=A      140=A      141=A   
   142=A      143=A      144=A      145=A      146=A      147=A      148=A   
   149=A      150=A      151=A      152=A      153=A   
 ...... END OF INITIAL ORBITAL SELECTION ......
 STEP CPU TIME =     0.21 TOTAL CPU TIME =        0.4 (    0.0 MIN)
 TOTAL WALL CLOCK TIME=        2.0 SECONDS, CPU UTILIZATION IS  22.50%

                    ----------------------
                    AO INTEGRAL TECHNOLOGY
                    ----------------------
     S,P,L SHELL ROTATED AXIS INTEGRALS, REPROGRAMMED BY
        KAZUYA ISHIMURA (IMS) AND JOSE SIERRA (SYNSTAR).
     S,P,D,L SHELL ROTATED AXIS INTEGRALS PROGRAMMED BY
        KAZUYA ISHIMURA (INSTITUTE FOR MOLECULAR SCIENCE).
     S,P,D,F,G SHELL TO TOTAL QUARTET ANGULAR MOMENTUM SUM 5,
        ERIC PROGRAM BY GRAHAM FLETCHER (ELORET AND NASA ADVANCED
        SUPERCOMPUTING DIVISION, AMES RESEARCH CENTER).
     S,P,D,F,G,L SHELL GENERAL RYS QUADRATURE PROGRAMMED BY
        MICHEL DUPUIS (PACIFIC NORTHWEST NATIONAL LABORATORY).

          --------------------
          2 ELECTRON INTEGRALS
          --------------------

 THE -PK- OPTION IS OFF, THE INTEGRALS ARE NOT IN SUPERMATRIX FORM.
 STORING   15000 INTEGRALS/RECORD ON DISK, USING 12 BYTES/INTEGRAL.
 TWO ELECTRON INTEGRAL EVALUATION REQUIRES   99509 WORDS OF MEMORY.
 SCHWARZ INEQUALITY OVERHEAD:     16130 INTEGRALS, T=        0.01
 II,JST,KST,LST =  1  1  1  1 NREC =         1 INTLOC =    1
 II,JST,KST,LST =  2  1  1  1 NREC =         1 INTLOC =    2
 II,JST,KST,LST =  3  1  1  1 NREC =         1 INTLOC =   34
 II,JST,KST,LST =  4  1  1  1 NREC =         1 INTLOC =  144
 II,JST,KST,LST =  5  1  1  1 NREC =         1 INTLOC = 1366
 II,JST,KST,LST =  6  1  1  1 NREC =         1 INTLOC = 2037
 II,JST,KST,LST =  7  1  1  1 NREC =         1 INTLOC = 2907
 II,JST,KST,LST =  8  1  1  1 NREC =         1 INTLOC = 4012
 II,JST,KST,LST =  9  1  1  1 NREC =         1 INTLOC = 5391
 II,JST,KST,LST = 10  1  1  1 NREC =         1 INTLOC = 6050
 II,JST,KST,LST = 11  1  1  1 NREC =         1 INTLOC =14574
 II,JST,KST,LST = 12  1  1  1 NREC =         2 INTLOC =  769
 II,JST,KST,LST = 13  1  1  1 NREC =         2 INTLOC =14254
 II,JST,KST,LST = 14  1  1  1 NREC =         3 INTLOC = 5481
 II,JST,KST,LST = 15  1  1  1 NREC =         3 INTLOC =12124
 II,JST,KST,LST = 16  1  1  1 NREC =         4 INTLOC =  345
 II,JST,KST,LST = 17  1  1  1 NREC =         5 INTLOC =10529
 II,JST,KST,LST = 18  1  1  1 NREC =         6 INTLOC = 6032
 II,JST,KST,LST = 19  1  1  1 NREC =         7 INTLOC =  760
 II,JST,KST,LST = 20  1  1  1 NREC =         7 INTLOC =10325
 II,JST,KST,LST = 21  1  1  1 NREC =         8 INTLOC = 6835
 II,JST,KST,LST = 22  1  1  1 NREC =         8 INTLOC = 9556
 II,JST,KST,LST = 23  1  1  1 NREC =        10 INTLOC =10252
 II,JST,KST,LST = 24  1  1  1 NREC =        10 INTLOC =14054
 II,JST,KST,LST = 25  1  1  1 NREC =        13 INTLOC = 5029
 II,JST,KST,LST = 26  1  1  1 NREC =        14 INTLOC = 7326
 II,JST,KST,LST = 27  1  1  1 NREC =        15 INTLOC = 9808
 II,JST,KST,LST = 28  1  1  1 NREC =        16 INTLOC = 1974
 II,JST,KST,LST = 29  1  1  1 NREC =        19 INTLOC =12104
 II,JST,KST,LST = 30  1  1  1 NREC =        21 INTLOC = 2268
 II,JST,KST,LST = 31  1  1  1 NREC =        21 INTLOC =12713
 II,JST,KST,LST = 32  1  1  1 NREC =        26 INTLOC = 8186
 II,JST,KST,LST = 33  1  1  1 NREC =        28 INTLOC = 5201
 II,JST,KST,LST = 34  1  1  1 NREC =        30 INTLOC = 2826
 II,JST,KST,LST = 35  1  1  1 NREC =        31 INTLOC =13378
 II,JST,KST,LST = 36  1  1  1 NREC =        33 INTLOC = 8746
 II,JST,KST,LST = 37  1  1  1 NREC =        35 INTLOC = 7218
 II,JST,KST,LST = 38  1  1  1 NREC =        35 INTLOC = 9438
 II,JST,KST,LST = 39  1  1  1 NREC =        39 INTLOC = 6574
 II,JST,KST,LST = 40  1  1  1 NREC =        40 INTLOC = 3401
 II,JST,KST,LST = 41  1  1  1 NREC =        48 INTLOC =  447
 II,JST,KST,LST = 42  1  1  1 NREC =        49 INTLOC =11738
 II,JST,KST,LST = 43  1  1  1 NREC =        51 INTLOC = 6552
 II,JST,KST,LST = 44  1  1  1 NREC =        53 INTLOC =10172
 II,JST,KST,LST = 45  1  1  1 NREC =        54 INTLOC =14993
 II,JST,KST,LST = 46  1  1  1 NREC =        67 INTLOC =11605
 II,JST,KST,LST = 47  1  1  1 NREC =        71 INTLOC =13677
 II,JST,KST,LST = 48  1  1  1 NREC =        73 INTLOC = 6379
 II,JST,KST,LST = 49  1  1  1 NREC =        86 INTLOC = 4171
 II,JST,KST,LST = 50  1  1  1 NREC =        92 INTLOC =  693
 II,JST,KST,LST = 51  1  1  1 NREC =        95 INTLOC =11680
 II,JST,KST,LST = 52  1  1  1 NREC =        99 INTLOC =11166
 II,JST,KST,LST = 53  1  1  1 NREC =       104 INTLOC = 7821
 II,JST,KST,LST = 54  1  1  1 NREC =       105 INTLOC = 9280
 II,JST,KST,LST = 55  1  1  1 NREC =       121 INTLOC = 5282
 II,JST,KST,LST = 56  1  1  1 NREC =       122 INTLOC =13458
 II,JST,KST,LST = 57  1  1  1 NREC =       142 INTLOC = 7341
 II,JST,KST,LST = 58  1  1  1 NREC =       147 INTLOC = 7874
 II,JST,KST,LST = 59  1  1  1 NREC =       155 INTLOC = 2610
 II,JST,KST,LST = 60  1  1  1 NREC =       162 INTLOC = 3214
 II,JST,KST,LST = 61  1  1  1 NREC =       164 INTLOC = 3618
 II,JST,KST,LST = 62  1  1  1 NREC =       187 INTLOC = 2590
 II,JST,KST,LST = 63  1  1  1 NREC =       196 INTLOC = 9054
 II,JST,KST,LST = 64  1  1  1 NREC =       199 INTLOC = 4417
 II,JST,KST,LST = 65  1  1  1 NREC =       230 INTLOC =14359
 II,JST,KST,LST = 66  1  1  1 NREC =       238 INTLOC = 6580
 II,JST,KST,LST = 67  1  1  1 NREC =       249 INTLOC = 8869
 II,JST,KST,LST = 68  1  1  1 NREC =       259 INTLOC =14341
 II,JST,KST,LST = 69  1  1  1 NREC =       268 INTLOC =13310
 II,JST,KST,LST = 70  1  1  1 NREC =       270 INTLOC = 7928
 II,JST,KST,LST = 71  1  1  1 NREC =       292 INTLOC = 7343
 II,JST,KST,LST = 72  1  1  1 NREC =       293 INTLOC =12389
 II,JST,KST,LST = 73  1  1  1 NREC =       311 INTLOC =   22
 II,JST,KST,LST = 74  1  1  1 NREC =       320 INTLOC = 4017
 II,JST,KST,LST = 75  1  1  1 NREC =       330 INTLOC = 1846
 II,JST,KST,LST = 76  1  1  1 NREC =       338 INTLOC =14931
 II,JST,KST,LST = 77  1  1  1 NREC =       341 INTLOC = 7865
 II,JST,KST,LST = 78  1  1  1 NREC =       364 INTLOC =10332
 II,JST,KST,LST = 79  1  1  1 NREC =       372 INTLOC =11069
 II,JST,KST,LST = 80  1  1  1 NREC =       378 INTLOC =10130
 II,JST,KST,LST = 81  1  1  1 NREC =       387 INTLOC = 6072
 II,JST,KST,LST = 82  1  1  1 NREC =       391 INTLOC = 7650
 II,JST,KST,LST = 83  1  1  1 NREC =       421 INTLOC =10131
 II,JST,KST,LST = 84  1  1  1 NREC =       430 INTLOC = 5506
 II,JST,KST,LST = 85  1  1  1 NREC =       438 INTLOC = 1530
 II,JST,KST,LST = 86  1  1  1 NREC =       438 INTLOC = 8880
 II,JST,KST,LST = 87  1  1  1 NREC =       451 INTLOC = 3716
 II,JST,KST,LST = 88  1  1  1 NREC =       452 INTLOC =13494
 II,JST,KST,LST = 89  1  1  1 NREC =       470 INTLOC = 3965
 II,JST,KST,LST = 90  1  1  1 NREC =       474 INTLOC =12725
 II,JST,KST,LST = 91  1  1  1 NREC =       482 INTLOC =12206
 II,JST,KST,LST = 92  1  1  1 NREC =       486 INTLOC = 4743
 II,JST,KST,LST = 93  1  1  1 NREC =       518 INTLOC =10941
 II,JST,KST,LST = 94  1  1  1 NREC =       525 INTLOC = 3050
 II,JST,KST,LST = 95  1  1  1 NREC =       528 INTLOC =12715
 II,JST,KST,LST = 96  1  1  1 NREC =       561 INTLOC = 1283
 II,JST,KST,LST = 97  1  1  1 NREC =       575 INTLOC =11689
 II,JST,KST,LST = 98  1  1  1 NREC =       588 INTLOC = 4525
 II,JST,KST,LST = 99  1  1  1 NREC =       592 INTLOC =11169
 II,JST,KST,LST =100  1  1  1 NREC =       637 INTLOC =13766
 II,JST,KST,LST =101  1  1  1 NREC =       650 INTLOC = 4835
 II,JST,KST,LST =102  1  1  1 NREC =       661 INTLOC =11521
 II,JST,KST,LST =103  1  1  1 NREC =       679 INTLOC = 5324
 II,JST,KST,LST =104  1  1  1 NREC =       694 INTLOC = 5622
 II,JST,KST,LST =105  1  1  1 NREC =       707 INTLOC = 3822
 II,JST,KST,LST =106  1  1  1 NREC =       710 INTLOC = 1078
 II,JST,KST,LST =107  1  1  1 NREC =       752 INTLOC =10112
 II,JST,KST,LST =108  1  1  1 NREC =       755 INTLOC = 2190
 II,JST,KST,LST =109  1  1  1 NREC =       787 INTLOC = 8142
 II,JST,KST,LST =110  1  1  1 NREC =       804 INTLOC =14028
 II,JST,KST,LST =111  1  1  1 NREC =       822 INTLOC = 5783
 II,JST,KST,LST =112  1  1  1 NREC =       840 INTLOC =10767
 II,JST,KST,LST =113  1  1  1 NREC =       844 INTLOC =10819
 II,JST,KST,LST =114  1  1  1 NREC =       883 INTLOC = 3538
 II,JST,KST,LST =115  1  1  1 NREC =       896 INTLOC = 6839
 II,JST,KST,LST =116  1  1  1 NREC =       902 INTLOC = 3888
 II,JST,KST,LST =117  1  1  1 NREC =       962 INTLOC =12620
 II,JST,KST,LST =118  1  1  1 NREC =       974 INTLOC =14979
 II,JST,KST,LST =119  1  1  1 NREC =       980 INTLOC =10645
 II,JST,KST,LST =120  1  1  1 NREC =      1040 INTLOC = 7279
 II,JST,KST,LST =121  1  1  1 NREC =      1065 INTLOC = 1961
 II,JST,KST,LST =122  1  1  1 NREC =      1089 INTLOC =  783
 II,JST,KST,LST =123  1  1  1 NREC =      1106 INTLOC = 6833
 II,JST,KST,LST =124  1  1  1 NREC =      1128 INTLOC =12743
 II,JST,KST,LST =125  1  1  1 NREC =      1146 INTLOC = 2896
 II,JST,KST,LST =126  1  1  1 NREC =      1147 INTLOC = 2834
 II,JST,KST,LST =127  1  1  1 NREC =      1172 INTLOC = 3235
 II,JST,KST,LST =128  1  1  1 NREC =      1174 INTLOC =12524
 II,JST,KST,LST =129  1  1  1 NREC =      1201 INTLOC = 9653
 II,JST,KST,LST =130  1  1  1 NREC =      1216 INTLOC =14585
 II,JST,KST,LST =131  1  1  1 NREC =      1226 INTLOC =11604
 II,JST,KST,LST =132  1  1  1 NREC =      1231 INTLOC = 6206
 II,JST,KST,LST =133  1  1  1 NREC =      1273 INTLOC = 9223
 II,JST,KST,LST =134  1  1  1 NREC =      1283 INTLOC = 7929
 II,JST,KST,LST =135  1  1  1 NREC =      1291 INTLOC = 8410
 II,JST,KST,LST =136  1  1  1 NREC =      1361 INTLOC = 4150
 II,JST,KST,LST =137  1  1  1 NREC =      1383 INTLOC = 4959
 II,JST,KST,LST =138  1  1  1 NREC =      1402 INTLOC = 7496
 II,JST,KST,LST =139  1  1  1 NREC =      1426 INTLOC =10853
 II,JST,KST,LST =140  1  1  1 NREC =      1434 INTLOC =13126
 II,JST,KST,LST =141  1  1  1 NREC =      1492 INTLOC =14049
 II,JST,KST,LST =142  1  1  1 NREC =      1507 INTLOC =11893
 SCHWARZ INEQUALITY TEST SKIPPED    48574055 INTEGRAL BLOCKS.
 TOTAL NUMBER OF NONZERO TWO-ELECTRON INTEGRALS =            22844977
       1523 INTEGRAL RECORDS WERE STORED ON DISK FILE  8.
  ...... END OF TWO-ELECTRON INTEGRALS .....
 STEP CPU TIME =     6.27 TOTAL CPU TIME =        6.7 (    0.1 MIN)
 TOTAL WALL CLOCK TIME=        8.0 SECONDS, CPU UTILIZATION IS  84.00%

          --------------------------
                 RHF SCF CALCULATION
          --------------------------

     NUCLEAR ENERGY =      3337.6587351687
     MAXIT =   30     NPUNCH=    2
     EXTRAP=T  DAMP=F  SHIFT=F  RSTRCT=F  DIIS=F  DEM=F  SOSCF=T
     DENSITY MATRIX CONV=  1.00E-05
     SOSCF WILL OPTIMIZE   15301 ORBITAL ROTATIONS, SOGTOL=   0.250
     MEMORY REQUIRED FOR RHF ITERS=    532204 WORDS.

 ITER EX DEM     TOTAL ENERGY        E CHANGE  DENSITY CHANGE     ORB. GRAD
   1  0  0    -1385.4270493335 -1385.4270493335   0.296882934   0.000000000
          ---------------START SECOND ORDER SCF---------------
   2  1  0    -1386.8742579192    -1.4472085856   0.085261901   0.022784662
   3  2  0    -1386.9181475698    -0.0438896507   0.043383888   0.013827977
   4  3  0    -1386.9232453330    -0.0050977631   0.005901716   0.002895239
   5  4  0    -1386.9234454617    -0.0002001288   0.001008214   0.000366701
   6  5  0    -1386.9234535806    -0.0000081189   0.000703016   0.000178220
   7  6  0    -1386.9234546754    -0.0000010948   0.000257260   0.000038315
   8  7  0    -1386.9234547840    -0.0000001086   0.000044630   0.000029586
   9  8  0    -1386.9234547975    -0.0000000135   0.000011847   0.000003919
  10  9  0    -1386.9234547983    -0.0000000008   0.000002057   0.000000617
  11 10  0    -1386.9234547983     0.0000000000   0.000000868   0.000000237

          -----------------
          DENSITY CONVERGED
          -----------------
     TIME TO FORM FOCK OPERATORS=       4.0 SECONDS (       0.4 SEC/ITER)
     TIME TO SOLVE SCF EQUATIONS=       0.3 SECONDS (       0.0 SEC/ITER)

 FINAL RHF ENERGY IS    -1386.9234547983 AFTER  11 ITERATIONS

          ------------
          EIGENVECTORS
          ------------

                      1          2          3          4          5
                  -11.0496   -11.0467   -11.0459   -11.0441   -11.0430
                     A          A          A          A          A   
    1  C  1  S    0.000000   0.000000   0.000000   0.000000   0.000000
    2  C  1  S    0.000000   0.000000   0.000000   0.000000   0.000000
    3  C  1  X    0.000000   0.000000   0.000000   0.000000   0.000000
    4  C  1  Y    0.000000   0.000000   0.000000   0.000000   0.000000
    5  C  1  Z    0.000000   0.000000   0.000000   0.000000   0.000000
    6  C  2  S    0.000000   0.000000   0.000000   0.000000   0.000000
    7  C  2  S    0.000000   0.000000   0.000000   0.000000   0.000000
    8  C  2  X    0.000000   0.000000   0.000000   0.000000   0.000000
    9  C  2  Y    0.000000   0.000000   0.000000   0.000000   0.000000
   10  C  2  Z    0.000000   0.000000   0.000000   0.000000   0.000000
   11  H  3  S    0.000000   0.000000   0.000000   0.000000   0.000000
   12  H  4  S    0.000000   0.000000   0.000000   0.000000   0.000000
   13  H  5  S    0.000000   0.000000   0.000000   0.000000   0.000000
   14  H  6  S    0.000000   0.000000   0.000000   0.000000   0.000000
   15  C  7  S    0.000000   0.000000   0.000000   0.000000   0.000000
   16  C  7  S    0.000000   0.000000   0.000000   0.000000   0.000000
   17  C  7  X    0.000000   0.000000   0.000000   0.000000   0.000000
   18  C  7  Y    0.000000   0.000000   0.000000   0.000000   0.000000
   19  C  7  Z    0.000000   0.000000   0.000000   0.000000   0.000000
   20  C  8  S    0.000000   0.000000   0.000000   0.000000   0.000000
   21  C  8  S    0.000000   0.000000   0.000000   0.000000   0.000000
   22  C  8  X    0.000000   0.000000   0.000000   0.000000   0.000000
   23  C  8  Y    0.000000   0.000000   0.000000   0.000000   0.000000
   24  C  8  Z    0.000000   0.000000   0.000000   0.000000   0.000000
   25  H  9  S    0.000000   0.000000   0.000000   0.000000   0.000000
   26  H 10  S    0.000000   0.000000   0.000000   0.000000   0.000000
   27  C 11  S   -0.000010   0.000000   0.000000   0.000000   0.000000
   28  C 11  S   -0.000001   0.000000   0.000000   0.000000   0.000000
   29  C 11  X    0.000000   0.000000   0.000000   0.000000   0.000000
   30  C 11  Y    0.000000   0.000000   0.000000   0.000000   0.000000
   31  C 11  Z    0.000000   0.000000   0.000000   0.000000   0.000000
   32  H 12  S    0.000000   0.000000   0.000000   0.000000   0.000000
   33  H 13  S    0.000000   0.000000   0.000000   0.000000   0.000000
   34  H 14  S    0.000001   0.000000   0.000000   0.000000   0.000000
   35  H 15  S    0.000001   0.000000   0.000000   0.000000   0.000000
   36  C 16  S   -0.000438   0.000000   0.000000   0.000000   0.000000
   37  C 16  S    0.000188   0.000000   0.000000   0.000000   0.000000
   38  C 16  X    0.000075   0.000000   0.000000   0.000000   0.000000
   39  C 16  Y   -0.000110   0.000000   0.000000   0.000000   0.000000
   40  C 16  Z    0.000074   0.000000   0.000000   0.000000   0.000000
   41  C 17  S   -0.003614   0.000000   0.000000   0.000000   0.000000
   42  C 17  S   -0.006227   0.000000   0.000000   0.000000   0.000000
   43  C 17  X   -0.003096   0.000000   0.000000   0.000000   0.000000
   44  C 17  Y    0.002217   0.000000   0.000000   0.000000   0.000000
   45  C 17  Z   -0.002283   0.000000   0.000000   0.000000   0.000000
   46  H 18  S   -0.000028   0.000000   0.000000   0.000000   0.000000
   47  H 19  S   -0.000053   0.000000   0.000000   0.000000   0.000000
   48  C 20  S    0.991812  -0.000001   0.000000   0.000000   0.000000
   49  C 20  S    0.037919   0.000000   0.000000   0.000000   0.000000
   50  C 20  X   -0.000107   0.000000   0.000000   0.000000   0.000000
   51  C 20  Y    0.000098   0.000000   0.000000   0.000000   0.000000
   52  C 20  Z    0.000042   0.000000   0.000000   0.000000   0.000000
   53  H 21  S    0.000072   0.000000   0.000000   0.000000   0.000000
   54  C 22  S   -0.011587   0.000000   0.000000   0.000000   0.000000
   55  C 22  S   -0.006320   0.000000   0.000000   0.000000   0.000000
   56  C 22  X    0.003952   0.000000   0.000000   0.000000   0.000000
   57  C 22  Y    0.000779   0.000000   0.000000   0.000000   0.000000
   58  C 22  Z   -0.001584   0.000000   0.000000   0.000000   0.000000
   59  H 23  S   -0.006969   0.000000   0.000000   0.000000   0.000000
   60  H 24  S   -0.006986   0.000000   0.000000   0.000000   0.000000
   61  H 25  S    0.000124   0.000000   0.000000   0.000000   0.000000
   62  H 26  S    0.000172   0.000000   0.000000   0.000000   0.000000
   63  H 27  S    0.000130   0.000000   0.000000   0.000000   0.000000
   64  C 28  S    0.000000   0.000000  -0.000331  -0.000019   0.000000
   65  C 28  S    0.000000   0.000000  -0.000037  -0.000002   0.000000
   66  C 28  X    0.000000   0.000000  -0.000005   0.000000   0.000000
   67  C 28  Y    0.000000   0.000000   0.000019   0.000001   0.000000
   68  C 28  Z    0.000000   0.000000   0.000002   0.000000   0.000000
   69  C 29  S    0.000000   0.000000  -0.000005  -0.000001   0.000000
   70  C 29  S    0.000000   0.000000   0.000002   0.000000   0.000000
   71  C 29  X    0.000000   0.000000  -0.000001   0.000000   0.000000
   72  C 29  Y    0.000000   0.000000   0.000001   0.000000   0.000000
   73  C 29  Z    0.000000   0.000000   0.000001   0.000000   0.000000
   74  H 30  S    0.000000   0.000000   0.000003   0.000000   0.000000
   75  H 31  S    0.000000   0.000000   0.000049   0.000002   0.000000
   76  H 32  S    0.000000   0.000000   0.000003   0.000000   0.000000
   77  C 33  S    0.000000   0.000000  -0.000009   0.000000   0.000000
   78  C 33  S    0.000000   0.000000   0.000005   0.000001   0.000000
   79  C 33  X    0.000000   0.000000   0.000006   0.000001   0.000000
   80  C 33  Y    0.000000   0.000000  -0.000003  -0.000001   0.000000
   81  C 33  Z    0.000000   0.000000  -0.000005  -0.000001   0.000000
   82  H 34  S    0.000000   0.000000  -0.000001   0.000000   0.000000
   83  C 35  S    0.000000   0.000000  -0.000137  -0.000002   0.000000
   84  C 35  S    0.000000   0.000000  -0.000094  -0.000008   0.000000
   85  C 35  X    0.000000   0.000000   0.000006   0.000001   0.000000
   86  C 35  Y    0.000000   0.000000  -0.000004  -0.000002   0.000000
   87  C 35  Z    0.000000   0.000000   0.000030   0.000003   0.000000
   88  H 36  S    0.000000   0.000000  -0.000003   0.000000   0.000000
   89  H 37  S    0.000000   0.000000   0.000205   0.000018   0.000000
   90  H 38  S    0.000000   0.000000   0.000099   0.000010   0.000000
   91  H 39  S    0.000000   0.000000   0.000013   0.000001   0.000000
   92  C 40  S    0.000000  -0.000026   0.000011   0.000014   0.000000
   93  C 40  S    0.000000  -0.000003   0.000002   0.000001   0.000000
   94  C 40  X    0.000000  -0.000001   0.000000   0.000000   0.000000
   95  C 40  Y    0.000000   0.000001   0.000000   0.000000   0.000000
   96  C 40  Z    0.000000   0.000001   0.000001   0.000000   0.000000
   97  C 41  S   -0.000001  -0.000001   0.000000   0.000000   0.000000
   98  C 41  S    0.000000   0.000002   0.000000   0.000000   0.000000
   99  C 41  X   -0.000001   0.000000   0.000000   0.000000   0.000000
  100  C 41  Y    0.000000  -0.000001   0.000000   0.000000   0.000000
  101  C 41  Z    0.000000  -0.000002   0.000000   0.000000   0.000000
  102  H 42  S    0.000000   0.000003   0.000000  -0.000001   0.000000
  103  H 43  S    0.000000   0.000000  -0.000001   0.000000   0.000000
  104  H 44  S    0.000000   0.000000  -0.000003  -0.000001   0.000000
  105  C 45  S    0.000004  -0.000026   0.000000   0.000000   0.000000
  106  C 45  S    0.000008  -0.000024   0.000000   0.000000   0.000000
  107  C 45  X    0.000005   0.000000   0.000000   0.000000   0.000000
  108  C 45  Y    0.000003   0.000017   0.000000   0.000000   0.000000
  109  C 45  Z    0.000002   0.000015   0.000000   0.000000   0.000000
  110  H 46  S   -0.000001   0.000000   0.000000   0.000000   0.000000
  111  C 47  S   -0.000259  -0.000245   0.000000   0.000000   0.000000
  112  C 47  S   -0.000055  -0.000027   0.000000   0.000000   0.000000
  113  C 47  X   -0.000003  -0.000006   0.000000   0.000000   0.000000
  114  C 47  Y    0.000008   0.000002   0.000000   0.000000   0.000000
  115  C 47  Z    0.000021  -0.000011   0.000000   0.000000   0.000000
  116  H 48  S   -0.000001   0.000068   0.000000   0.000000   0.000000
  117  H 49  S    0.000025   0.000003   0.000000   0.000000   0.000000
  118  H 50  S    0.000091   0.000002   0.000000   0.000000   0.000000
  119  H 51  S    0.000007   0.000038   0.000000   0.000000   0.000000
  120  C 52  S    0.000206   0.000004   0.000000   0.000000   0.000000
  121  C 52  S   -0.000040   0.000001   0.000000   0.000000   0.000000
  122  C 52  X   -0.000010   0.000000   0.000000   0.000000   0.000000
  123  C 52  Y    0.000062   0.000000   0.000000   0.000000   0.000000
  124  C 52  Z    0.000018   0.000000   0.000000   0.000000   0.000000
  125  C 53  S    0.000000   0.000000   0.000000   0.000000   0.000000
  126  C 53  S    0.000012   0.000001   0.000000   0.000000   0.000000
  127  C 53  X   -0.000004   0.000000   0.000000   0.000000   0.000000
  128  C 53  Y    0.000010  -0.000001   0.000000   0.000000   0.000000
  129  C 53  Z   -0.000001   0.000000   0.000000   0.000000   0.000000
  130  H 54  S    0.000053  -0.000001   0.000000   0.000000   0.000000
  131  H 55  S    0.000185   0.000000   0.000000   0.000000   0.000000
  132  H 56  S   -0.000021   0.000000   0.000000   0.000000   0.000000
  133  C 57  S   -0.000003  -0.000161   0.000000   0.000000   0.000001
  134  C 57  S    0.000002  -0.000015   0.000000   0.000000   0.000000
  135  C 57  X    0.000001   0.000006   0.000000   0.000000   0.000000
  136  C 57  Y   -0.000002  -0.000001   0.000000   0.000000   0.000000
  137  C 57  Z    0.000000  -0.000002   0.000000   0.000000   0.000000
  138  H 58  S   -0.000002   0.000019   0.000000   0.000000   0.000000
  139  H 59  S   -0.000001  -0.000003   0.000000   0.000000   0.000000
  140  H 60  S   -0.000004   0.000006   0.000000   0.000000   0.000000
  141  C 61  S    0.000000   0.000000   0.000000   0.000000   0.000000
  142  C 61  S   -0.000001   0.000000   0.000000   0.000000   0.000000
  143  C 61  X    0.000000   0.000000   0.000000   0.000000   0.000000
  144  C 61  Y   -0.000001   0.000000   0.000000   0.000000   0.000000
  145  C 61  Z    0.000000   0.000000   0.000000   0.000000   0.000000
  146  H 62  S    0.000001   0.000000   0.000000   0.000000   0.000000
  147  H 63  S    0.000000   0.000000   0.000000   0.000000   0.000000
  148  C 64  S    0.000000   0.000000  -0.000464   0.000030   0.000000
  149  C 64  S    0.000000   0.000000   0.000190   0.000027   0.000000
  150  C 64  X    0.000000   0.000000   0.000110   0.000029   0.000000
  151  C 64  Y    0.000000   0.000000   0.000107  -0.000001   0.000000
  152  C 64  Z    0.000000   0.000000  -0.000026   0.000046   0.000000
  153  C 65  S    0.000000   0.000000  -0.003903  -0.002135   0.000000
  154  C 65  S    0.000000   0.000000  -0.006210  -0.000528   0.000000
  155  C 65  X    0.000000   0.000000  -0.003856  -0.000335   0.000000
  156  C 65  Y    0.000000   0.000000  -0.002107  -0.000084   0.000000
  157  C 65  Z    0.000000   0.000000   0.000528  -0.000062   0.000000
  158  H 66  S    0.000000   0.000000  -0.000027  -0.000003   0.000000
  159  H 67  S    0.000000   0.000000  -0.000048  -0.000001   0.000000
  160  C 68  S    0.000000   0.000000   0.988640   0.080253   0.000000
  161  C 68  S    0.000000   0.000000   0.038101  -0.002666   0.000000
  162  C 68  X    0.000000   0.000000   0.000026  -0.002860   0.000000
  163  C 68  Y    0.000000   0.000000  -0.000140   0.001262   0.000000
  164  C 68  Z    0.000000   0.000000   0.000023  -0.002929   0.000000
  165  H 69  S    0.000000   0.000000   0.000070   0.000050   0.000000
  166  C 70  S    0.000000  -0.000002  -0.079320   0.988657   0.000000
  167  C 70  S    0.000000   0.000000  -0.008730   0.036987   0.000000
  168  C 70  X    0.000000   0.000000   0.002845   0.000376   0.000000
  169  C 70  Y    0.000000   0.000000  -0.001237  -0.000198   0.000000
  170  C 70  Z    0.000000   0.000000   0.002897   0.000406   0.000000
  171  H 71  S    0.000000   0.000000  -0.006949  -0.000535   0.000000
  172  H 72  S    0.000000   0.000000  -0.006967  -0.000535   0.000000
  173  C 73  S    0.000000  -0.000001  -0.002290  -0.013575   0.000000
  174  C 73  S    0.000000   0.000000   0.000484  -0.006365   0.000000
  175  C 73  X    0.000000   0.000000  -0.000252   0.003801   0.000000
  176  C 73  Y    0.000000   0.000000  -0.000256   0.001955   0.000000
  177  C 73  Z    0.000000   0.000000   0.000185  -0.000549   0.000000
  178  H 74  S    0.000000   0.000000   0.000593  -0.006925   0.000000
  179  H 75  S    0.000000   0.000000   0.000598  -0.006930   0.000000
  180  H 76  S    0.000000   0.000000   0.000041   0.000141   0.000000
  181  H 77  S    0.000000   0.000000   0.000033   0.000140   0.000000
  182  H 78  S    0.000000   0.000000  -0.000122   0.000177   0.000000
  183  C 79  S    0.000000  -0.001082  -0.000004   0.000053  -0.000010
  184  C 79  S    0.000000  -0.000049  -0.000002   0.000015  -0.000001
  185  C 79  X    0.000000  -0.000073   0.000000   0.000001  -0.000001
  186  C 79  Y    0.000000   0.000066  -0.000001   0.000002   0.000000
  187  C 79  Z    0.000000  -0.000043   0.000000  -0.000003   0.000000
  188  C 80  S    0.000000  -0.000399  -0.000001   0.000002  -0.000006
  189  C 80  S    0.000000   0.000199  -0.000001   0.000000   0.000006
  190  C 80  X    0.000000   0.000036   0.000000   0.000000   0.000004
  191  C 80  Y    0.000000   0.000140   0.000000  -0.000001  -0.000001
  192  C 80  Z    0.000000  -0.000071   0.000000   0.000001   0.000001
  193  H 81  S    0.000000   0.000005   0.000003  -0.000017   0.000000
  194  H 82  S    0.000000   0.000007   0.000003  -0.000022   0.000000
  195  H 83  S    0.000000  -0.000132   0.000001  -0.000002   0.000000
  196  C 84  S    0.000000  -0.002677   0.000000   0.000000  -0.000055
  197  C 84  S    0.000000  -0.006178   0.000000   0.000000  -0.000060
  198  C 84  X    0.000000  -0.002765   0.000000   0.000000  -0.000002
  199  C 84  Y    0.000000  -0.003170   0.000000   0.000000   0.000037
  200  C 84  Z    0.000000   0.001348   0.000000   0.000000  -0.000020
  201  H 85  S    0.000000  -0.000035   0.000001  -0.000002  -0.000002
  202  C 86  S    0.000000   0.991831   0.000000   0.000002   0.000037
  203  C 86  S    0.000000   0.037871   0.000000   0.000000  -0.000004
  204  C 86  X    0.000000  -0.000044   0.000000   0.000000   0.000002
  205  C 86  Y    0.000000  -0.000032   0.000000   0.000000   0.000000
  206  C 86  Z    0.000000  -0.000004   0.000000   0.000000   0.000001
  207  H 87  S    0.000000   0.000110   0.000000   0.000000   0.000167
  208  C 88  S    0.000000  -0.010552   0.000000   0.000000  -0.000034
  209  C 88  S    0.000000  -0.006280   0.000000   0.000000  -0.000040
  210  C 88  X    0.000000   0.004085   0.000000   0.000000  -0.000013
  211  C 88  Y    0.000000  -0.000839   0.000000   0.000000  -0.000012
  212  C 88  Z    0.000000   0.001152   0.000000   0.000000  -0.000017
  213  H 89  S    0.000000  -0.006963   0.000000   0.000000  -0.000001
  214  H 90  S    0.000000  -0.006967   0.000000   0.000000   0.000000
  215  H 91  S    0.000000   0.000123   0.000000   0.000000   0.000109
  216  H 92  S    0.000000   0.000166   0.000000   0.000000   0.000006
  217  H 93  S    0.000000   0.000124   0.000000   0.000000   0.000050
  218  C 94  S    0.000000   0.000008   0.000000   0.000000  -0.000504
  219  C 94  S    0.000000   0.000004   0.000000   0.000000  -0.000035
  220  C 94  X    0.000000   0.000000   0.000000   0.000000  -0.000159
  221  C 94  Y    0.000000   0.000003   0.000000   0.000000  -0.000053
  222  C 94  Z    0.000000  -0.000002   0.000000   0.000000  -0.000012
  223  C 95  S    0.000000   0.000000   0.000000   0.000000  -0.001165
[...]

   91    0.6281018
   92   -0.0215818   0.6269659
   93   -0.0216180  -0.0217604   0.6279863
   94    0.0000000   0.0000000  -0.0000001   4.8126423
   95    0.0000000   0.0000000   0.0000001   0.5919632   4.7765243
   96   -0.0000001   0.0000000  -0.0000001   0.3917591  -0.0243920
   97    0.0000000   0.0000000   0.0000000   0.3932283  -0.0257720
   98    0.0000010   0.0000000   0.0000025  -0.0269581   0.4144652
   99    0.0000000   0.0000000   0.0000000  -0.0294493   0.3921060
  100   -0.0001978   0.0000072  -0.0003291  -0.0033561  -0.0255455
  101   -0.0000158   0.0000018  -0.0001056  -0.0002680  -0.0014333
  102   -0.0000070  -0.0000001  -0.0000280   0.0000392   0.0011318
  103   -0.0000789   0.0000029  -0.0000910  -0.0001846  -0.0014974
  104    0.0000000   0.0000000   0.0000000   0.0007650  -0.0342061
  105    0.0000000   0.0000000   0.0000000   0.0000428  -0.0047199
  106    0.0000000   0.0000000   0.0000000  -0.0000220   0.0015014

            96          97          98          99         100

   96    0.5986991
   97   -0.0238981   0.5999973
   98   -0.0034061   0.0013905   4.7683977
   99    0.0020195  -0.0055187  -0.0255746   0.6095006
  100   -0.0004204   0.0000137   0.3806126   0.0010534   4.7173948
  101   -0.0003966   0.0000032  -0.0215719  -0.0000029   0.3803566
  102    0.0000001   0.0000000  -0.0194122  -0.0000272   0.3833616
  103   -0.0003425   0.0000022  -0.0216929  -0.0000016   0.3804400
  104    0.0000158  -0.0000205   0.5912304  -0.0042664  -0.0307051
  105    0.0000005  -0.0000024  -0.0244721   0.0004284   0.0013730
  106   -0.0000008   0.0000004  -0.0254576   0.0000322  -0.0047384

           101         102         103         104         105

  101    0.6210365
  102   -0.0216018   0.6197843
  103   -0.0205608  -0.0215818   0.6203829
  104    0.0004875  -0.0049369   0.0004788   4.8262936
  105   -0.0000389   0.0000610  -0.0000390   0.3919116   0.6027718
  106    0.0000786   0.0002032   0.0000791   0.3922339  -0.0241141

           106

  106    0.6039081

          TOTAL MULLIKEN AND LOWDIN ATOMIC POPULATIONS
       ATOM         MULL.POP.    CHARGE          LOW.POP.     CHARGE
    1 C             6.126210   -0.126210         6.065916   -0.065916
    2 C             6.124520   -0.124520         6.063587   -0.063587
    3 H             0.938228    0.061772         0.968317    0.031683
    4 H             0.937986    0.062014         0.968100    0.031900
    5 H             0.936970    0.063030         0.967331    0.032669
    6 H             0.935654    0.064346         0.966326    0.033674
    7 C             6.137764   -0.137764         6.085750   -0.085750
    8 C             6.046233   -0.046233         6.010667   -0.010667
    9 H             0.941461    0.058539         0.970675    0.029325
   10 H             0.944189    0.055811         0.972503    0.027497
   11 C             6.182645   -0.182645         6.089475   -0.089475
   12 H             0.943511    0.056489         0.974536    0.025464
   13 H             0.934774    0.065226         0.965689    0.034311
   14 H             0.933968    0.066032         0.964741    0.035259
   15 H             0.935172    0.064828         0.965643    0.034357
   16 C             6.137977   -0.137977         6.085784   -0.085784
   17 C             6.048863   -0.048863         6.015292   -0.015292
   18 H             0.943053    0.056947         0.971883    0.028117
   19 H             0.943779    0.056221         0.972267    0.027733
   20 C             6.102965   -0.102965         6.035906   -0.035906
   21 H             0.944994    0.055006         0.975618    0.024382
   22 C             6.169317   -0.169317         6.081256   -0.081256
   23 H             0.940213    0.059787         0.971843    0.028157
   24 H             0.941241    0.058759         0.972719    0.027281
   25 H             0.941715    0.058285         0.972036    0.027964
   26 H             0.942711    0.057289         0.972517    0.027483
   27 H             0.943678    0.056322         0.973472    0.026528
   28 C             6.184539   -0.184539         6.091318   -0.091318
   29 C             6.058442   -0.058442         6.030526   -0.030526
   30 H             0.936618    0.063382         0.966948    0.033052
   31 H             0.937181    0.062819         0.967104    0.032896
   32 H             0.936545    0.063455         0.966799    0.033201
   33 C             6.059340   -0.059340         6.031724   -0.031724
   34 H             0.945754    0.054246         0.976404    0.023596
   35 C             6.184978   -0.184978         6.092087   -0.092087
   36 H             0.947122    0.052878         0.977436    0.022564
   37 H             0.936610    0.063390         0.966490    0.033510
   38 H             0.936954    0.063046         0.966924    0.033076
   39 H             0.936368    0.063632         0.966670    0.033330
   40 C             6.181822   -0.181822         6.089043   -0.089043
   41 C             6.056571   -0.056571         6.028680   -0.028680
   42 H             0.937664    0.062336         0.967904    0.032096
   43 H             0.937864    0.062136         0.967835    0.032165
   44 H             0.936375    0.063625         0.966789    0.033211
   45 C             6.058601   -0.058601         6.031762   -0.031762
   46 H             0.945436    0.054564         0.975642    0.024358
   47 C             6.181433   -0.181433         6.088551   -0.088551
   48 H             0.949733    0.050267         0.978907    0.021093
   49 H             0.936888    0.063112         0.967336    0.032664
   50 H             0.938996    0.061004         0.968909    0.031091
   51 H             0.938442    0.061558         0.968469    0.031531
   52 C             6.182479   -0.182479         6.092040   -0.092040
   53 C             5.971683    0.028317         5.961650    0.038350
   54 H             0.937121    0.062879         0.967354    0.032646
   55 H             0.937545    0.062455         0.967468    0.032532
   56 H             0.937231    0.062769         0.967508    0.032492
   57 C             6.183074   -0.183074         6.092264   -0.092264
   58 H             0.937322    0.062678         0.967284    0.032716
   59 H             0.936869    0.063131         0.967308    0.032692
   60 H             0.937523    0.062477         0.967672    0.032328
   61 C             6.143931   -0.143931         6.098333   -0.098333
   62 H             0.947061    0.052939         0.974847    0.025153
   63 H             0.946786    0.053214         0.974631    0.025369
   64 C             6.138419   -0.138419         6.086244   -0.086244
   65 C             6.049130   -0.049130         6.015288   -0.015288
   66 H             0.943308    0.056692         0.972166    0.027834
   67 H             0.944461    0.055539         0.972827    0.027173
   68 C             6.104803   -0.104803         6.040095   -0.040095
   69 H             0.945236    0.054764         0.975780    0.024220
   70 C             6.090333   -0.090333         6.027758   -0.027758
   71 H             0.941753    0.058247         0.972961    0.027039
   72 H             0.942904    0.057096         0.973892    0.026108
   73 C             6.171034   -0.171034         6.084141   -0.084141
   74 H             0.945791    0.054209         0.977168    0.022832
   75 H             0.948185    0.051815         0.978972    0.021028
   76 H             0.945462    0.054538         0.974705    0.025295
   77 H             0.945695    0.054305         0.974955    0.025045
   78 H             0.943582    0.056418         0.973157    0.026843
   79 C             6.185910   -0.185910         6.092703   -0.092703
   80 C             6.058164   -0.058164         6.029916   -0.029916
   81 H             0.935256    0.064744         0.965675    0.034325
   82 H             0.936381    0.063619         0.966551    0.033449
   83 H             0.936152    0.063848         0.966443    0.033557
   84 C             6.062920   -0.062920         6.038126   -0.038126
   85 H             0.949288    0.050712         0.979095    0.020905
   86 C             6.104546   -0.104546         6.036837   -0.036837
   87 H             0.949704    0.050296         0.978715    0.021285
   88 C             6.171154   -0.171154         6.084307   -0.084307
   89 H             0.940381    0.059619         0.971701    0.028299
   90 H             0.941171    0.058829         0.972338    0.027662
   91 H             0.944529    0.055471         0.974013    0.025987
   92 H             0.941924    0.058076         0.971780    0.028220
   93 H             0.944015    0.055985         0.973570    0.026430
   94 C             6.130027   -0.130027         6.074967   -0.074967
   95 C             6.060126   -0.060126         6.026670   -0.026670
   96 H             0.939568    0.060432         0.968800    0.031200
   97 H             0.939425    0.060575         0.969243    0.030757
   98 C             5.987557    0.012443         5.976733    0.023267
   99 H             0.940299    0.059701         0.971562    0.028438
  100 C             6.178761   -0.178761         6.088429   -0.088429
  101 H             0.935764    0.064236         0.966090    0.033910
  102 H             0.936968    0.063032         0.967384    0.032616
  103 H             0.935031    0.064969         0.965520    0.034480
  104 C             6.129281   -0.129281         6.079594   -0.079594
  105 H             0.943203    0.056797         0.972142    0.027858
  106 H             0.943704    0.056296         0.972525    0.027475

          -------------------------------
          BOND ORDER AND VALENCE ANALYSIS     BOND ORDER THRESHOLD=0.050
          -------------------------------

                   BOND                       BOND                       BOND
  ATOM PAIR DIST  ORDER      ATOM PAIR DIST  ORDER      ATOM PAIR DIST  ORDER
    1   2  1.336  2.014        1   3  1.085  0.977        1   4  1.086  0.977
    2   5  1.086  0.977        2   6  1.086  0.976        7   8  1.338  1.978
    7   9  1.086  0.977        7  10  1.085  0.976        8  11  1.493  1.016
    8  12  1.088  0.969       11  13  1.095  0.981       11  14  1.094  0.974
   11  15  1.094  0.974       16  17  1.339  1.978       16  18  1.086  0.977
   16  19  1.086  0.976       17  20  1.500  1.005       17  21  1.088  0.969
   20  22  1.521  0.995       20  23  1.096  0.973       20  24  1.096  0.968
   22  25  1.095  0.983       22  26  1.094  0.981       22  27  1.095  0.983
   28  29  1.494  1.016       28  30  1.095  0.976       28  31  1.092  0.980
   28  32  1.094  0.974       29  33  1.342  1.944       29  34  1.090  0.969
   33  35  1.493  1.016       33  36  1.089  0.969       35  37  1.092  0.979
   35  38  1.094  0.973       35  39  1.094  0.975       40  41  1.494  1.016
   40  42  1.094  0.981       40  43  1.094  0.974       40  44  1.094  0.975
   41  45  1.342  1.945       41  46  1.088  0.968       45  47  1.494  1.015
   45  48  1.088  0.968       47  49  1.095  0.981       47  50  1.094  0.975
   47  51  1.094  0.975       52  53  1.499  1.006       52  54  1.095  0.975
   52  55  1.095  0.974       52  56  1.094  0.981       53  57  1.499  1.006
   53  61  1.342  1.945       57  58  1.095  0.974       57  59  1.095  0.981
   57  60  1.095  0.975       61  62  1.086  0.977       61  63  1.086  0.977
   64  65  1.339  1.978       64  66  1.086  0.977       64  67  1.086  0.976
   65  68  1.501  1.005       65  69  1.088  0.969       68  70  1.528  0.986
   68  71  1.096  0.972       68  72  1.097  0.967       70  73  1.520  1.002
   70  74  1.097  0.975       70  75  1.097  0.975       73  76  1.094  0.982
   73  77  1.095  0.982       73  78  1.094  0.983       79  80  1.494  1.016
   79  81  1.094  0.974       79  82  1.094  0.974       79  83  1.093  0.980
   80  84  1.342  1.948       80  85  1.089  0.970       84  86  1.502  1.001
   84  87  1.088  0.968       86  88  1.521  1.003       86  89  1.096  0.968
   86  90  1.096  0.968       88  91  1.095  0.983       88  92  1.092  0.982
   88  93  1.095  0.982       94  95  1.338  1.924       94  96  1.083  0.975
   94  97  1.086  0.977       94 104  3.678  0.088       95  98  1.454  1.055
   95  99  1.090  0.968       98 100  1.504  1.003       98 104  1.343  1.891
  100 101  1.095  0.975      100 102  1.096  0.982      100 103  1.095  0.975
  104 105  1.086  0.976      104 106  1.086  0.977

                       TOTAL       BONDED        FREE
      ATOM            VALENCE     VALENCE     VALENCE
    1 C                 3.972       3.972       0.000
    2 C                 3.972       3.972       0.000
    3 H                 0.996       0.996       0.000
    4 H                 0.996       0.996       0.000
    5 H                 0.996       0.996       0.000
    6 H                 0.996       0.996       0.000
    7 C                 3.972       3.972       0.000
    8 C                 3.975       3.975       0.000
    9 H                 0.997       0.997       0.000
   10 H                 0.997       0.997       0.000
   11 C                 3.967       3.967       0.000
   12 H                 0.997       0.997       0.000
   13 H                 0.996       0.996       0.000
   14 H                 0.996       0.996       0.000
   15 H                 0.996       0.996       0.000
   16 C                 3.972       3.972       0.000
   17 C                 3.974       3.974       0.000
   18 H                 0.997       0.997       0.000
   19 H                 0.997       0.997       0.000
   20 C                 3.969       3.969       0.000
   21 H                 0.997       0.997       0.000
   22 C                 3.966       3.966       0.000
   23 H                 0.996       0.996       0.000
   24 H                 0.997       0.997       0.000
   25 H                 0.997       0.997       0.000
   26 H                 0.997       0.997       0.000
   27 H                 0.997       0.997       0.000
   28 C                 3.968       3.968       0.000
   29 C                 3.975       3.975       0.000
   30 H                 0.996       0.996       0.000
   31 H                 0.996       0.996       0.000
   32 H                 0.996       0.996       0.000
   33 C                 3.975       3.975       0.000
   34 H                 0.997       0.997       0.000
   35 C                 3.968       3.968       0.000
   36 H                 0.997       0.997       0.000
   37 H                 0.996       0.996       0.000
   38 H                 0.996       0.996       0.000
   39 H                 0.996       0.996       0.000
   40 C                 3.968       3.968       0.000
   41 C                 3.974       3.974       0.000
   42 H                 0.996       0.996       0.000
   43 H                 0.996       0.996       0.000
   44 H                 0.996       0.996       0.000
   45 C                 3.975       3.975       0.000
   46 H                 0.997       0.997       0.000
   47 C                 3.968       3.968       0.000
   48 H                 0.997       0.997       0.000
   49 H                 0.996       0.996       0.000
   50 H                 0.996       0.996       0.000
   51 H                 0.996       0.996       0.000
   52 C                 3.967       3.967       0.000
   53 C                 3.975       3.975       0.000
   54 H                 0.996       0.996       0.000
   55 H                 0.996       0.996       0.000
   56 H                 0.996       0.996       0.000
   57 C                 3.967       3.967       0.000
   58 H                 0.996       0.996       0.000
   59 H                 0.996       0.996       0.000
   60 H                 0.996       0.996       0.000
   61 C                 3.970       3.970       0.000
   62 H                 0.997       0.997       0.000
   63 H                 0.997       0.997       0.000
   64 C                 3.972       3.972       0.000
   65 C                 3.974       3.974       0.000
   66 H                 0.997       0.997       0.000
   67 H                 0.997       0.997       0.000
   68 C                 3.968       3.968       0.000
   69 H                 0.997       0.997       0.000
   70 C                 3.967       3.967       0.000
   71 H                 0.997       0.997       0.000
   72 H                 0.997       0.997       0.000
   73 C                 3.967       3.967       0.000
   74 H                 0.997       0.997       0.000
   75 H                 0.997       0.997       0.000
   76 H                 0.997       0.997       0.000
   77 H                 0.997       0.997       0.000
   78 H                 0.997       0.997       0.000
   79 C                 3.968       3.968       0.000
   80 C                 3.975       3.975       0.000
   81 H                 0.996       0.996       0.000
   82 H                 0.996       0.996       0.000
   83 H                 0.996       0.996       0.000
   84 C                 3.973       3.973       0.000
   85 H                 0.997       0.997       0.000
   86 C                 3.970       3.970       0.000
   87 H                 0.997       0.997       0.000
   88 C                 3.967       3.967       0.000
   89 H                 0.996       0.996       0.000
   90 H                 0.997       0.997       0.000
   91 H                 0.997       0.997       0.000
   92 H                 0.997       0.997       0.000
   93 H                 0.997       0.997       0.000
   94 C                 3.973       3.973       0.000
   95 C                 3.977       3.977       0.000
   96 H                 0.996       0.996       0.000
   97 H                 0.996       0.996       0.000
   98 C                 3.979       3.979       0.000
   99 H                 0.996       0.996       0.000
  100 C                 3.966       3.966       0.000
  101 H                 0.996       0.996       0.000
  102 H                 0.996       0.996       0.000
  103 H                 0.996       0.996       0.000
  104 C                 3.971       3.971       0.000
  105 H                 0.997       0.997       0.000
  106 H                 0.997       0.997       0.000

          ---------------------
          ELECTROSTATIC MOMENTS
          ---------------------

 POINT   1           X           Y           Z (BOHR)    CHARGE
                 0.333982    0.546795    5.824181        0.00 (A.U.)
         DX          DY          DZ         /D/  (DEBYE)
     0.304385    0.324299   -0.173177    0.477295
 ...... END OF PROPERTY EVALUATION ......
 STEP CPU TIME =     0.18 TOTAL CPU TIME =       11.4 (    0.2 MIN)
 TOTAL WALL CLOCK TIME=       12.0 SECONDS, CPU UTILIZATION IS  95.17%
      760046  WORDS OF DYNAMIC MEMORY USED
 EXECUTION OF GAMESS TERMINATED NORMALLY Wed Jul 31 17:50:16 2019
 DDI: 263224 bytes (0.3 MB / 0 MWords) used by master data server.

 ----------------------------------------
 CPU timing information for all processes
 ========================================
 0: 10.595 + 0.831 = 11.426
 1: 0.01 + 0.02 = 0.04
 ----------------------------------------
 ddikick.x: exited gracefully.
unset echo
----- accounting info -----
Files used on the master node Scotts-Mac-mini.local were:
-rw-r--r--  1 scottensign  staff       5044 Jul 31 17:50 .//../../../.gamessqd/alkenes3_28.F05
-rw-r--r--  1 scottensign  staff  274158276 Jul 31 17:50 .//../../../.gamessqd/alkenes3_28.F08
-rw-r--r--  1 scottensign  staff   25128960 Jul 31 17:50 .//../../../.gamessqd/alkenes3_28.F10
-rw-r--r--  1 scottensign  staff    1028127 Jul 31 17:50 .//../../../.gamessqd/alkenes3_28.dat
-rw-r--r--  1 scottensign  staff       5044 Jul 31 17:50 .//../../../.gamessqd/alkenes3_28.inp
-rw-r--r--  1 scottensign  staff    1290989 Jul 31 17:50 .//../../../.gamessqd/alkenes3_28.log
ls: No match.
ls: No match.
ls: No match.
Wed Jul 31 17:50:19 MDT 2019
10.654u 0.912s 0:14.67 78.8%	0+0k 0+0io 720pf+0w
